Compound,mean EN difference,geom-mean_eta_both,MagpieData mean Electronegativity,max ionic char,MagpieData avg_dev MendeleevNumber,MagpieData minimum Electronegativity,MagpieData range MeltingT,MagpieData mean Row,MagpieData avg_dev NpValence,MagpieData mean GSbandgap,std_dev EN difference,Formation_energy
O-NC-Nd,1.395,6.24394720674997,2.5425,0.733531702186476,23.625,1.14,3768.2,3,1.25,2.73325,0.997020561473032,-1.4741650875
O-NCO-Al,1.22666666666667,9.72631815563875,2.816,0.567089816109359,4.96,1.61,3768.2,2.2,1.04,2.1866,0.664680374315355,-1.594285936
O-NCO-Bi,1.02166666666667,5.83720631689095,2.898,0.395951025061975,3.44,2.02,3768.2,2.8,0.64,2.1866,0.37476659402887,-0.592631514
O-NCO-Ce,1.47166666666667,5.50409612221147,2.718,0.739616569076971,21.84,1.12,3768.2,2.8,1.28,2.1866,1.01116269709676,-1.861799156
O-NCO-Co,1.09166666666667,5.63365154262242,2.87,0.455779073674793,8.56,1.88,3768.2,2.4,1.28,2.1866,0.473761543394987,-0.6556607
O-NCO-Cr,1.20166666666667,5.67553896567606,2.826,0.547107278760105,10.96,1.66,3768.2,2.4,1.28,2.1866,0.629325035256027,-1.23282066
O-NCO-Fe,1.11666666666667,6.40841179074629,2.86,0.476922164006862,9.28,1.83,3768.2,2.4,1.28,2.1866,0.509116882454314,-0.740534762
O-NCO-Ga,1.12666666666667,6.98998568017462,2.856,0.485327755826721,4.72,1.81,3768.2,2.4,1.04,2.1866,0.523259018078045,-0.995277184
O-NCO-Gd,1.43166666666667,6.17146967748929,2.734,0.714753054942695,18,1.2,3768.2,2.8,1.28,2.1866,0.954594154601839,-1.082944416
O-NCO-In,1.14166666666667,6.39206373046776,2.85,0.497871893693153,4.48,1.78,3768.2,2.6,1.04,2.1866,0.544472221513641,-0.918630952
O-NCO-Ir,0.931666666666666,5.41421722256195,2.934,0.319140970908075,8.08,2.2,3768.2,2.8,1.28,2.1866,0.247487373415291,-0.246706244
O-NCO-La,1.48166666666667,6.76342822973748,2.714,0.745613369000596,22.48,1.1,3768.2,2.8,1.28,2.1866,1.02530483272049,-1.938237984
O-NCO-Lu,1.39666666666667,6.2410132175654,2.748,0.691867378684938,13.52,1.27,3768.2,2.8,1.28,2.1866,0.905096679918781,-2.014245904
O-NCO-Nd,1.46166666666667,5.69625279513912,2.722,0.733531702186476,20.56,1.14,3768.2,2.8,1.28,2.1866,0.997020561473032,-1.884418182
O-NCO-Rh,0.891666666666667,6.08227408007606,2.95,0.285662686264043,8.32,2.28,3768.2,2.6,1.28,2.1866,0.190918830920368,-0.499261938
O-NCO-Ru,0.931666666666666,5.99038274110631,2.934,0.319140970908075,9.04,2.2,3768.2,2.6,1.28,2.1866,0.247487373415291,-0.463247674
O-NCO-Sc,1.35166666666667,7.90627072489581,2.766,0.660947392745558,23.12,1.36,3768.2,2.4,1.28,2.1866,0.841457069611991,-1.951260784
O-NCO-Sm,1.44666666666667,5.65467282522471,2.728,0.724240177376075,19.28,1.17,3768.2,2.8,1.28,2.1866,0.975807358037435,-1.910704994
O-NCO-Y,1.42166666666667,7.45216368846615,2.738,0.708320592678053,22.8,1.22,3768.2,2.6,1.28,2.1866,0.940452018978108,-1.98896021
O-NC-Rh,0.825,6.66708441826644,2.8275,0.285662686264043,8.625,2.28,3768.2,2.75,1.25,2.73325,0.190918830920368,0.29424441
O-NC-Ru,0.865,6.56635773180788,2.8075,0.319140970908075,9.75,2.2,3768.2,2.75,1.25,2.73325,0.247487373415291,0.355819235
O-NCS-Al,0.94,9.64659065043193,2.644,0.567089816109359,5.12,1.61,3768.2,2.4,1.04,2.627,0.664680374315355,-0.9587308394
O-NCS-Bi,0.735,5.78935821141298,2.726,0.395951025061975,3.6,2.02,3768.2,3,0.64,2.627,0.37476659402887,-0.1494028234
O-NC-Sc,1.285,8.6664582461384,2.5975,0.660947392745558,26.625,1.36,3768.2,2.5,1.25,2.73325,0.841457069611991,-1.51527061
O-NCS-Ce,1.185,5.45897855097635,2.546,0.739616569076971,21.92,1.12,3768.2,3,1.28,2.627,1.01116269709676,-1.4610537954
O-NCS-Co,0.805,5.58747199394731,2.698,0.455779073674793,8.72,1.88,3768.2,2.6,1.28,2.627,0.473761543394987,-0.0462462654
O-NCS-Cr,0.915,5.62901606202468,2.654,0.547107278760105,11.04,1.66,3768.2,2.6,1.28,2.627,0.629325035256027,-0.5589641074
O-NCS-Fe,0.83,6.35588146259555,2.688,0.476922164006862,9.44,1.83,3768.2,2.6,1.28,2.627,0.509116882454314,-0.1364808614
O-NCS-Ga,0.84,6.93268813851559,2.684,0.485327755826721,4.88,1.81,3768.2,2.6,1.04,2.627,0.523259018078045,-0.4127528334
O-NCS-Gd,1.145,6.12088158516367,2.562,0.714753054942695,18.08,1.2,3768.2,3,1.28,2.627,0.954594154601839,-0.6119985194
O-NCS-In,0.855,6.33966740883831,2.678,0.497871893693153,4.64,1.78,3768.2,2.8,1.04,2.627,0.544472221513641,-0.4151145494
O-NCS-Ir,0.645,5.36983639675559,2.762,0.319140970908075,8.24,2.2,3768.2,3,1.28,2.627,0.247487373415291,0.2409272706
O-NCS-La,1.195,6.7079877998879,2.542,0.745613369000596,22.56,1.1,3768.2,3,1.28,2.627,1.02530483272049,-1.4803534694
O-NCS-Lu,1.11,6.18985507058346,2.576,0.691867378684938,13.6,1.27,3768.2,3,1.28,2.627,0.905096679918781,-1.5251147514
O-NC-Sm,1.38,6.19836932487904,2.55,0.724240177376075,22.125,1.17,3768.2,3,1.25,2.73325,0.975807358037435,-1.49623338
O-NCS-Nd,1.175,5.64956009836356,2.55,0.733531702186476,20.64,1.14,3768.2,3,1.28,2.627,0.997020561473032,-1.4194953874
O-NCS-Rh,0.605,6.03241713208928,2.778,0.285662686264043,8.48,2.28,3768.2,2.8,1.28,2.627,0.190918830920368,0.0147418206
O-NCS-Ru,0.645,5.94127903469449,2.762,0.319140970908075,9.2,2.2,3768.2,2.8,1.28,2.627,0.247487373415291,0.0608445726
O-NCS-Sc,1.065,7.84146231226742,2.594,0.660947392745558,23.2,1.36,3768.2,2.6,1.28,2.627,0.841457069611991,-1.4354839714
O-NCS-Sm,1.16,5.60832096320438,2.556,0.724240177376075,19.36,1.17,3768.2,3,1.28,2.627,0.975807358037435,-1.4403867054
O-NCS-Y,1.135,7.39107763208111,2.566,0.708320592678053,22.88,1.22,3768.2,2.8,1.28,2.627,0.940452018978108,-1.5112929414
O-NC-Y,1.355,8.16868884164495,2.5625,0.708320592678053,26.25,1.22,3768.2,2.75,1.25,2.73325,0.940452018978108,-1.5880272025
O-NO-Al,1.115,10.1066322481808,2.8825,0.567089816109359,4.75,1.61,878.67,2.25,1,1.60925,1.01116269709676,-1.355908285
O-NO-Bi,0.91,6.06545011766588,2.985,0.395951025061975,1.75,2.02,489.6,3,0.5,1.60925,0.721248916810279,-0.13852788
O-NO-Ce,1.36,5.71931479884602,2.76,0.739616569076971,26.375,1.12,1016.2,3,1.375,1.60925,1.35764501987817,-1.674753145
O-NO-Co,0.98,5.85393603669776,2.95,0.455779073674793,10.25,1.88,1713.2,2.5,1.375,1.60925,0.820243866176395,-0.3833105675
O-NO-Cr,1.09,5.89746132281867,2.895,0.547107278760105,13.625,1.66,2125.2,2.5,1.375,1.60925,0.975807358037435,-0.9962997175
O-NO-Fe,1.005,6.65899060955869,2.9375,0.476922164006862,11.375,1.83,1756.2,2.5,1.375,1.60925,0.855599205235722,-0.5592075875
O-NO-Ga,1.015,7.26330493811978,2.9325,0.485327755826721,4.5,1.81,248.11,2.5,1,1.60925,0.869741340859453,-0.66398034
O-NO-Gd,1.32,6.41278369297669,2.78,0.714753054942695,21.875,1.2,1531.2,3,1.375,1.60925,1.30107647738325,-1.6379434725
O-NO-In,1.03,6.64200331482267,2.925,0.497871893693153,4.25,1.78,374.95,2.75,1,1.60925,0.89095454429505,-0.460949665
O-NO-Ir,1.10666666666667,5.62592149512171,3.03,0.319140970908075,9.5,2.2,2684.2,3,1.375,1.60925,0,0.0597787325
O-NO-La,1.37,7.02788874074541,2.755,0.745613369000596,27.125,1.1,1138.2,3,1.375,1.60925,1.3717871555019,-1.72456762
O-NO-Lu,1.285,6.48504649309684,2.7975,0.691867378684938,16.625,1.27,1881.2,3,1.375,1.60925,1.25157900270019,-1.7951788075
O-NO-Nd,1.35,5.91898509507089,2.765,0.733531702186476,24.875,1.14,1239.2,3,1.375,1.60925,1.34350288425444,-1.6473721375
O-NO-Rh,0.78,6.3201004096636,3.05,0.285662686264043,9.875,2.28,2182.2,2.75,1.375,1.60925,0.537401153701776,-0.2071637025
O-NO-Ru,1.10666666666667,6.22461597712714,3.03,0.319140970908075,11,2.2,2552.2,2.75,1.375,1.60925,0,-0.221188135
O-NO-Sc,1.24,8.21541814615176,2.82,0.660947392745558,27.875,1.36,1759.2,2.5,1.375,1.60925,1.1879393923934,-1.5973093275
O-NO-Sm,1.335,5.87577928398278,2.7725,0.724240177376075,23.375,1.17,1290.2,3,1.375,1.60925,1.32228968081884,-1.67137522
O-NO-Y,1.31,7.74355482181201,2.785,0.708320592678053,27.5,1.22,1744.2,2.75,1.375,1.60925,1.28693434175952,-1.753129585
O-OCN-Al,1.22666666666667,10.2510322180783,2.816,0.567089816109359,4.96,1.61,3768.2,2.2,1.04,2.1866,0.664680374315355,-1.30951146
O-OCN-Bi,1.02166666666667,6.15211111342572,2.898,0.395951025061975,3.44,2.02,3768.2,2.8,0.64,2.1866,0.37476659402887,-0.323156196
O-OCN-Ce,1.47166666666667,5.8010303361791,2.718,0.739616569076971,21.84,1.12,3768.2,2.8,1.28,2.1866,1.01116269709676,-1.672538704
O-OCN-Co,1.09166666666667,5.93757499443596,2.87,0.455779073674793,8.56,1.88,3768.2,2.4,1.28,2.1866,0.473761543394987,-0.350980702
O-OCN-Cr,1.20166666666667,5.98172215437708,2.826,0.547107278760105,10.96,1.66,3768.2,2.4,1.28,2.1866,0.629325035256027,-0.940486614
O-OCN-Fe,1.11666666666667,6.75413190093607,2.86,0.476922164006862,9.28,1.83,3768.2,2.4,1.28,2.1866,0.509116882454314,-0.527869704
O-OCN-Ga,1.12666666666667,7.36708045786423,2.856,0.485327755826721,4.72,1.81,3768.2,2.4,1.04,2.1866,0.523259018078045,-0.700317266
O-OCN-Gd,1.43166666666667,6.50440726742622,2.734,0.714753054942695,18,1.2,3768.2,2.8,1.28,2.1866,0.954594154601839,-1.621923202
O-OCN-In,1.14166666666667,6.73690189776975,2.85,0.497871893693153,4.48,1.78,3768.2,2.6,1.04,2.1866,0.544472221513641,-0.629750668
O-OCN-Ir,0.931666666666666,5.706302662121,2.934,0.319140970908075,8.08,2.2,3768.2,2.8,1.28,2.1866,0.247487373415291,0.101431784
O-OCN-La,1.48166666666667,7.12830071752329,2.714,0.745613369000596,22.48,1.1,3768.2,2.8,1.28,2.1866,1.02530483272049,-1.70470648
O-OCN-Lu,1.39666666666667,6.57770253275395,2.748,0.691867378684938,13.52,1.27,3768.2,2.8,1.28,2.1866,0.905096679918781,-1.236148834
O-OCN-Nd,1.46166666666667,6.00355345063819,2.722,0.733531702186476,20.56,1.14,3768.2,2.8,1.28,2.1866,0.997020561473032,-1.63528943
O-OCN-Rh,0.891666666666667,6.41039975829866,2.95,0.285662686264043,8.32,2.28,3768.2,2.6,1.28,2.1866,0.190918830920368,-0.166799128
O-OCN-Ru,0.931666666666666,6.31355107812309,2.934,0.319140970908075,9.04,2.2,3768.2,2.6,1.28,2.1866,0.247487373415291,-0.138310678
O-OCN-Sc,1.35166666666667,8.33279712105346,2.766,0.660947392745558,23.12,1.36,3768.2,2.4,1.28,2.1866,0.841457069611991,-1.674863872
O-OCN-Sm,1.44666666666667,5.95973033027561,2.728,0.724240177376075,19.28,1.17,3768.2,2.8,1.28,2.1866,0.975807358037435,-1.651382794
O-OCN-Y,1.42166666666667,7.85419198122491,2.738,0.708320592678053,22.8,1.22,3768.2,2.6,1.28,2.1866,0.940452018978108,-1.724840992
O-SCN-Al,0.94,9.48305752172687,2.644,0.567089816109359,5.12,1.61,3768.2,2.4,1.04,2.627,0.664680374315355,-0.6151934874
O-SCN-Bi,0.735,5.69121453601361,2.726,0.395951025061975,3.6,2.02,3768.2,3,0.64,2.627,0.37476659402887,0.0538344026
O-SCN-Ce,1.185,5.36643561282079,2.546,0.739616569076971,21.92,1.12,3768.2,3,1.28,2.627,1.01116269709676,-1.1644893834
O-SCN-Co,0.805,5.49275078001448,2.698,0.455779073674793,8.72,1.88,3768.2,2.6,1.28,2.627,0.473761543394987,0.1220102866
O-SCN-Cr,0.915,5.53359057528936,2.654,0.547107278760105,11.04,1.66,3768.2,2.6,1.28,2.627,0.629325035256027,-0.3475211534
O-SCN-Fe,0.83,6.24813384284865,2.688,0.476922164006862,9.44,1.83,3768.2,2.6,1.28,2.627,0.509116882454314,0.0994370606
O-SCN-Ga,0.84,6.81516224540877,2.684,0.485327755826721,4.88,1.81,3768.2,2.6,1.04,2.627,0.523259018078045,-0.1202945734
O-SCN-Gd,1.145,6.01711778380343,2.562,0.714753054942695,18.08,1.2,3768.2,3,1.28,2.627,0.954594154601839,-0.3573147594
O-SCN-In,0.855,6.23219465666235,2.678,0.497871893693153,4.64,1.78,3768.2,2.8,1.04,2.627,0.544472221513641,-0.1447940274
O-SCN-Ir,0.645,5.2788046345074,2.762,0.319140970908075,8.24,2.2,3768.2,3,1.28,2.627,0.247487373415291,0.2148371906
O-SCN-La,1.195,6.59427112298279,2.542,0.745613369000596,22.56,1.1,3768.2,3,1.28,2.627,1.02530483272049,-1.2212576974
O-SCN-Lu,1.11,6.08492200121164,2.576,0.691867378684938,13.6,1.27,3768.2,3,1.28,2.627,0.905096679918781,-1.2195569214
O-SCN-Nd,1.175,5.55378634034147,2.55,0.733531702186476,20.64,1.14,3768.2,3,1.28,2.627,0.997020561473032,-1.1581721734
O-SCN-Rh,0.605,5.93015301795685,2.778,0.285662686264043,8.48,2.28,3768.2,2.8,1.28,2.627,0.190918830920368,0.1292109186
O-SCN-Ru,0.645,5.84055993255141,2.762,0.319140970908075,9.2,2.2,3768.2,2.8,1.28,2.627,0.247487373415291,0.1884597686
O-SCN-Sc,1.065,7.70853049085853,2.594,0.660947392745558,23.2,1.36,3768.2,2.6,1.28,2.627,0.841457069611991,-1.1386116854
O-SCN-Sm,1.16,5.51324630863159,2.556,0.724240177376075,19.36,1.17,3768.2,3,1.28,2.627,0.975807358037435,-1.1658185134
O-SCN-Y,1.135,7.26578092431398,2.566,0.708320592678053,22.88,1.22,3768.2,2.8,1.28,2.627,0.940452018978108,-1.2195482454
O-SH-Al,1.105,9.72631815563875,2.4575,0.567089816109359,6,1.61,919.46,2.25,1.75,2.51375,0.417193000900063,-1.2694185693
O-SH-Bi,0.9,5.83720631689095,2.56,0.395951025061975,1.875,2.02,530.39,3,1.375,2.51375,0.127279220613579,-0.3907475468
O-SH-Ce,1.35,5.50409612221147,2.335,0.739616569076971,27.75,1.12,1056.99,3,2,2.51375,0.763675323681471,-1.9180311568
O-SH-Co,0.97,5.63365154262242,2.525,0.455779073674793,11.625,1.88,1753.99,2.5,2,2.51375,0.226274169979695,-0.3470095318
O-SH-Cr,1.08,5.67553896567606,2.47,0.547107278760105,15,1.66,2165.99,2.5,2,2.51375,0.381837661840736,-0.9553649218
O-SH-Fe,0.995,6.40841179074629,2.5125,0.476922164006862,12.75,1.83,1796.99,2.5,2,2.51375,0.261629509039023,-0.3796091418
O-SH-Ga,1.005,6.98998568017462,2.5075,0.485327755826721,5.625,1.81,374.35,2.5,1.75,2.51375,0.275771644662754,-0.6392408343
O-SH-Gd,1.31,6.17146967748929,2.355,0.714753054942695,23.25,1.2,1571.99,3,2,2.51375,0.707106781186548,-1.9083503943
O-SH-In,1.02,6.39206373046776,2.5,0.497871893693153,5.25,1.78,415.74,2.75,1.75,2.51375,0.29698484809835,-0.6648249918
O-SH-Ir,0.81,5.41421722256195,2.605,0.319140970908075,10.875,2.2,2724.99,3,2,2.51375,0,-0.2208662368
O-SH-La,1.36,6.76342822973748,2.33,0.745613369000596,28.5,1.1,1178.99,3,2,2.51375,0.777817459305202,-1.9925063218
O-SH-Lu,1.275,6.2410132175654,2.3725,0.691867378684938,18,1.27,1921.99,3,2,2.51375,0.657609306503489,-2.0076623793
O-SH-Nd,1.34,5.69625279513912,2.34,0.733531702186476,26.25,1.14,1279.99,3,2,2.51375,0.749533188057741,-1.9197026343
O-SH-Rh,0.77,6.08227408007606,2.625,0.319140970908075,11.25,2.2,2222.99,2.75,2,2.51375,0.056568542494924,-0.3311021117
O-SH-Ru,0.81,5.99038274110631,2.605,0.319140970908075,12.375,2.2,2592.99,2.75,2,2.51375,0,-0.2501875293
O-SH-Sc,1.23,7.90627072489581,2.395,0.660947392745558,29.25,1.36,1799.99,2.5,2,2.51375,0.5939696961967,-1.9031228518
O-SH-Sm,1.325,5.65467282522471,2.3475,0.724240177376075,24.75,1.17,1330.99,3,2,2.51375,0.728319984622144,-1.9387332142
O-SH-Y,1.3,7.45216368846615,2.36,0.708320592678053,28.875,1.22,1784.99,2.75,2,2.51375,0.692964645562817,-2.0043525843
PH-Br-Al,0.67,7.50779633725297,2.24,0.365948438141932,7.75,1.61,919.46,2.75,1.75,2.73375,0.417193000900063,-0.598424315
PH-Br-Bi,0.465,4.50577037523051,2.3425,0.198203144033059,4.5,2.02,530.39,3.5,1.375,2.73375,0.127279220613579,-0.1587133425
PH-Br-Ce,0.915,4.24864085720562,2.1175,0.571043601320927,28.125,1.12,1056.99,3.5,2,2.73375,0.763675323681471,-1.2609491325
PH-Br-Co,0.535,4.34864537024621,2.3075,0.252932696862804,12,1.88,1753.99,3,2,2.73375,0.226274169979695,-0.3724059175
PH-Br-Cr,0.645,4.38097849325811,2.2525,0.344593745673159,15.375,1.66,2165.99,3,2,2.73375,0.381837661840736,-0.390971855
PH-Br-Fe,0.56,4.94668689634429,2.295,0.273287979294598,13.125,1.83,1796.99,3,2,2.73375,0.261629509039023,-0.21021222
PH-Br-Ga,0.57,5.39560685218191,2.29,0.281525453515926,7.5,1.81,303.29,3,1.75,2.73375,0.275771644662754,-0.3387514725
PH-Br-Gd,0.875,4.76379002811665,2.1375,0.539019713789166,23.625,1.2,1571.99,3.5,2,2.73375,0.707106781186548,-0.13023155
PH-Br-In,0.585,4.93406774230097,2.2825,0.29397173014286,7.25,1.78,415.74,3.25,1.75,2.73375,0.29698484809835,-0.391342275
PH-Br-Ir,0.375,4.17926286002445,2.3875,0.137762910230166,11.25,2.19,2724.99,3.5,2,2.73375,0,-0.4641442725
PH-Br-La,0.925,5.22072596001376,2.1125,0.578906340112088,28.875,1.1,1178.99,3.5,2,2.73375,0.777817459305202,-1.2195992125
PH-Br-Lu,0.84,4.81747105387668,2.155,0.510330693299954,18.375,1.27,1921.99,3.5,2,2.73375,0.657609306503489,-1.130889945
PH-Br-Nd,0.905,4.39696760758531,2.1225,0.563121432466778,26.625,1.14,1279.99,3.5,2,2.73375,0.749533188057741,-1.15247139
PH-Br-Rh,0.335,4.69493947553937,2.4075,0.137762910230166,11.625,2.19,2222.99,3.25,2,2.73375,0.056568542494924,-0.5634919875
PH-Br-Ru,0.375,4.62400806582167,2.3875,0.137762910230166,12.75,2.19,2592.99,3.25,2,2.73375,0,-0.26156462
PH-Br-Sc,0.795,6.10289211599463,2.1775,0.472707575956951,29.625,1.36,1799.99,3,2,2.73375,0.5939696961967,-1.0806879025
PH-Br-Sm,0.89,4.36487180927487,2.13,0.551131362113503,25.125,1.17,1330.99,3.5,2,2.73375,0.728319984622144,-1.149027455
PH-Br-Y,0.865,5.75236449698487,2.1425,0.530881557605336,29.25,1.22,1784.99,3.25,2,2.73375,0.692964645562817,-1.1888216125
PH-Cl-Al,0.77,7.79462702511401,2.29,0.451531264011087,7.5,1.61,919.46,2.5,1.75,2.99275,0.417193000900063,-0.666811255
PH-Cl-Bi,0.565,4.67791052901418,2.3925,0.277400390009806,4.25,2.02,530.39,3.25,1.375,2.99275,0.127279220613579,-0.2255674025
PH-Cl-Ce,1.015,4.41095753773409,2.1675,0.646686671641399,28,1.12,1056.99,3.25,2,2.99275,0.763675323681471,-1.3355788375
PH-Cl-Co,0.635,4.51478266097456,2.3575,0.336084236664527,11.875,1.88,1753.99,2.75,2,2.99275,0.226274169979695,-0.4933954025
PH-Cl-Cr,0.745,4.54835105083409,2.3025,0.430217175269077,15.25,1.66,2165.99,2.75,2,2.99275,0.381837661840736,-0.4829327875
PH-Cl-Fe,0.66,5.1356719914875,2.345,0.357394966944066,13,1.83,1796.99,2.75,2,2.99275,0.261629509039023,-0.3310916825
PH-Cl-Ga,0.67,5.60174265492869,2.34,0.365948438141932,7.25,1.81,303.29,2.75,1.75,2.99275,0.275771644662754,-0.389155635
PH-Cl-Gd,0.975,4.94578766220407,2.1875,0.617260240551931,23.5,1.2,1571.99,3.25,2,2.99275,0.707106781186548,-1.197732965
PH-Cl-In,0.685,5.12257073051534,2.3325,0.378798640994549,7,1.78,415.74,3,1.75,2.99275,0.29698484809835,-0.43688589
PH-Cl-Ir,0.475,4.33892899733626,2.4375,0.209607008802607,11.125,2.19,2724.99,3.25,2,2.99275,0,-0.550232535
PH-Cl-La,1.025,5.42018054708272,2.1625,0.653855859626721,28.75,1.1,1178.99,3.25,2,2.99275,0.777817459305202,-1.304497755
PH-Cl-Lu,0.94,5.00151953815398,2.205,0.590584603914435,18.25,1.27,1921.99,3.25,2,2.99275,0.657609306503489,-1.22004324
PH-Cl-Nd,1.005,4.56495101932604,2.1725,0.639441117518025,26.5,1.14,1279.99,3.25,2,2.99275,0.749533188057741,-1.2347017625
PH-Cl-Rh,0.435,4.87430671710304,2.4575,0.209607008802607,11.5,2.19,2222.99,3,2,2.99275,0.056568542494924,-0.6572487225
PH-Cl-Ru,0.475,4.80066541700921,2.4375,0.209607008802607,12.625,2.19,2592.99,3,2,2.99275,0,-0.340809395
PH-Cl-Sc,0.895,6.33604931218636,2.2275,0.555141933777059,29.5,1.36,1799.99,2.75,2,2.99275,0.5939696961967,-1.1754779875
PH-Cl-Sm,0.99,4.53162902101054,2.18,0.628432598279113,25,1.17,1330.99,3.25,2,2.99275,0.728319984622144,-1.2350615975
PH-Cl-Y,0.965,5.97213000358375,2.1925,0.609723571536479,29.125,1.22,1784.99,3,2,2.99275,0.692964645562817,-1.2749139075
PH-CN-Al,0.696666666666667,8.11312205235922,2.318,0.400239577896362,5.12,1.61,3808.99,2.2,1.04,4.0822,0.410121933088197,0.288315694
PH-CN-Bi,0.658333333333333,4.8690538943848,2.4,0.229025515499885,4,2.02,3808.99,2.8,0.96,4.0822,0.101159939369957,0.535159674
PH-CN-Ce,0.941666666666667,4.59119297897223,2.22,0.602118079548795,21.92,1.12,3808.99,2.8,1.28,4.0822,0.756604255869606,-0.294172797999997
PH-CN-Co,0.705,4.69926048422131,2.372,0.285662686264043,8.72,1.88,3808.99,2.4,1.28,4.0822,0.181934053986603,0.315902808
PH-CN-Cr,0.671666666666667,4.73420050677198,2.328,0.378798640994549,11.04,1.66,3808.99,2.4,1.28,4.0822,0.37476659402887,0.386383388
PH-CN-Fe,0.586666666666667,5.34551987588032,2.362,0.306514536143557,9.44,1.83,3808.99,2.4,1.28,4.0822,0.254558441227157,0.395162846
PH-CN-Ga,0.596666666666667,5.8306345792958,2.358,0.314923658853183,4.88,1.81,3808.99,2.4,1.04,4.0822,0.268700576850888,0.494512028
PH-CN-Gd,0.901666666666667,5.14787671292419,2.236,0.571043601320927,18.08,1.2,3808.99,2.8,1.28,4.0822,0.700035713374682,-0.18038012
PH-CN-In,0.738333333333333,5.33188328634699,2.352,0.327598737602997,4.64,1.78,3808.99,2.6,1.04,4.0822,0.239652526240249,0.444195452
PH-CN-Ir,0.401666666666667,4.51622129172945,2.436,0.165251669366129,8.24,2.19,3808.99,2.8,1.28,4.0822,0.007071067811866,0.23355146
PH-CN-La,0.951666666666667,5.64165369075656,2.216,0.609723571536479,22.56,1.1,3808.99,2.8,1.28,4.0822,0.770746391493337,-0.270765268