Compound,mean EN difference,geom-mean_eta_both,MagpieData mean Electronegativity,max ionic char,MagpieData avg_dev MendeleevNumber,MagpieData minimum Electronegativity,MagpieData range MeltingT,MagpieData mean Row,MagpieData avg_dev NpValence,MagpieData mean GSbandgap,std_dev EN difference,Formation_energy
NO-NCS-Cd,0.905,5.74405181994565,2.72333333333333,0.534956811865944,5,1.69,3768.2,2.66666666666667,1.11111111111111,3.262,0.608111831820431,0.2269360788
NO-NCS-Co,0.81,5.32366303214204,2.755,0.455779073674793,7.66666666666667,1.88,3768.2,2.5,1.11111111111111,3.262,0.473761543394987,0.2257356772
NO-NCS-Cu,0.8,5.3452165588195,2.75833333333333,0.447277935696606,6.33333333333333,1.9,3768.2,2.5,1.11111111111111,3.262,0.459619407771256,0.2804170305
NO-NCS-Fe,0.835,5.12130012555933,2.74666666666667,0.476922164006862,8.33333333333333,1.83,3768.2,2.5,1.11111111111111,3.262,0.509116882454314,0.1953474822
NO-NCS-Mg,1.095,8.42494474688381,2.66,0.678328679969553,5.44444444444444,1.31,3768.2,2.33333333333333,1.11111111111111,3.262,0.876812408671319,-0.2346291578
NO-NCS-Mn,0.975,5.55179716168266,2.7,0.590584603914435,9,1.55,3768.2,2.5,1.11111111111111,3.262,0.707106781186547,0.0274055038
NO-NCS-Ni,0.795,5.38780972159042,2.76,0.443019472906049,7,1.91,3768.2,2.5,1.11111111111111,3.262,0.45254833995939,0.1332197538
NO-NCS-Pb,0.585,5.38780972159042,2.83,0.265103054644222,3.11111111111111,2.33,3768.2,2.83333333333333,0.666666666666667,3.262,0.15556349186104,0.2329284888
NO-NCS-Pd,0.65,5.00159948827289,2.80833333333333,0.319140970908075,6.77777777777778,2.2,3768.2,2.66666666666667,1.11111111111111,3.262,0.247487373415291,0.2485112088
NO-NCS-Pt,0.61,5.28002448718365,2.82166666666667,0.285662686264043,6.55555555555556,2.28,3768.2,2.83333333333333,1.11111111111111,3.262,0.190918830920368,0.3442292072
NO-NC-Sr,1.42333333333333,7.39797850797124,2.604,0.787757332306276,23.68,0.95,3768.2,2.6,1.12,3.474,1.13137084989848,-0.36638036
NO-NCS-Sr,1.275,6.69373439640921,2.6,0.787757332306276,20.8888888888889,0.95,3768.2,2.66666666666667,1.11111111111111,3.262,1.13137084989848,-0.4872605878
NO-NCS-Zn,0.925,5.83553295731314,2.71666666666667,0.551131362113503,5.22222222222222,1.65,3768.2,2.5,1.11111111111111,3.262,0.636396103067893,0.1966227672
NO-NC-Zn,1.07333333333333,6.4494861678287,2.744,0.551131362113503,5.12,1.65,3768.2,2.4,1.12,3.474,0.636396103067893,0.455837376
OCN-Br-Ba,1.42666666666667,6.36649153263423,2.576,0.803211356141508,24.4,0.89,3768.2,3.2,1.44,2.478,1.17379725676967,-1.349649516
OCN-Br-Be,1.08666666666667,11.0978812610556,2.712,0.582814787035019,7.68,1.57,3768.2,2.4,1.44,2.478,0.692964645562816,-0.396140662
OCN-Br-Ca,1.37166666666667,7.35053446064945,2.598,0.774266459580783,25.04,1,3768.2,2.8,1.44,2.478,1.09601551083915,-1.263286034
OCN-Br-Cd,1.02666666666667,5.92164794638164,2.736,0.534956811865944,7.04,1.69,3768.2,3,1.44,2.478,0.608111831820431,-0.394464298
OCN-Br-Co,0.931666666666666,5.488261465895,2.774,0.455779073674793,9.84,1.88,3768.2,2.8,1.44,2.478,0.473761543394987,-0.14334135
OCN-Br-Cu,0.921666666666667,5.51048139025983,2.778,0.447277935696606,8.4,1.9,3768.2,2.8,1.44,2.478,0.459619407771256,-0.033802552
OCN-Br-Fe,0.956666666666666,5.27964184898482,2.764,0.476922164006862,10.56,1.83,3768.2,2.8,1.44,2.478,0.509116882454314,-0.233894872
OCN-Br-Mg,1.21666666666667,8.68542943598224,2.66,0.678328679969553,7.44,1.31,3768.2,2.6,1.44,2.478,0.876812408671319,-0.909370978
OCN-Br-Mn,1.09666666666667,5.72344910730917,2.708,0.590584603914435,11.28,1.55,3768.2,2.8,1.44,2.478,0.707106781186547,-0.600007524
OCN-Br-Ni,0.916666666666667,5.55439145979933,2.78,0.443019472906049,9.12,1.91,3768.2,2.8,1.44,2.478,0.45254833995939,-0.260772564
OCN-Br-Pb,0.706666666666667,5.55439145979933,2.864,0.265103054644222,5.28,2.33,3768.2,3.2,1.04,2.478,0.15556349186104,-0.41818721
OCN-Br-Pd,0.771666666666667,5.15624027546375,2.838,0.319140970908075,8.88,2.2,3768.2,3,1.44,2.478,0.247487373415291,0.092063934
OCN-Br-Pt,0.731666666666667,5.44327369276269,2.854,0.285662686264043,8.64,2.28,3768.2,3.2,1.44,2.478,0.190918830920368,0.31554415
OCN-Br-Sr,1.39666666666667,6.90069306207892,2.588,0.787757332306276,24.72,0.95,3768.2,3,1.44,2.478,1.13137084989848,-1.316250624
OCN-Br-Zn,1.04666666666667,6.0159575219575,2.728,0.551131362113503,7.2,1.65,3768.2,2.8,1.44,2.478,0.636396103067893,-0.35371792
OCN-Cl-Ba,1.49333333333333,6.60971938053228,2.616,0.803211356141508,24.32,0.89,3768.2,3,1.44,2.6852,1.17379725676967,-1.428089444
OCN-Cl-Be,1.15333333333333,11.5218689097501,2.752,0.582814787035019,7.52,1.57,3768.2,2.2,1.44,2.6852,0.692964645562816,-0.578750656
OCN-Cl-Ca,1.43833333333333,7.6313570563601,2.638,0.774266459580783,24.96,1,3768.2,2.6,1.44,2.6852,1.09601551083915,-1.36645891
OCN-Cl-Cd,1.09333333333333,6.14788082183987,2.776,0.534956811865944,6.8,1.69,3768.2,2.8,1.44,2.6852,0.608111831820431,-0.467393012
OCN-Cl-Co,0.998333333333334,5.69793708051082,2.814,0.455779073674793,9.68,1.88,3768.2,2.6,1.44,2.6852,0.473761543394987,-0.335700994
OCN-Cl-Cu,0.988333333333334,5.72100590326121,2.818,0.447277935696606,8.24,1.9,3768.2,2.6,1.44,2.6852,0.459619407771256,-0.125674994
OCN-Cl-Fe,1.02333333333333,5.48134728093562,2.804,0.476922164006862,10.4,1.83,3768.2,2.6,1.44,2.6852,0.509116882454314,-0.344902196
OCN-Cl-Mg,1.28333333333333,9.01725086367999,2.7,0.678328679969553,7.28,1.31,3768.2,2.4,1.44,2.6852,0.876812408671319,-1.03883018
OCN-Cl-Mn,1.16333333333333,5.94210991943607,2.748,0.590584603914435,11.12,1.55,3768.2,2.6,1.44,2.6852,0.707106781186547,-0.692412426
OCN-Cl-Ni,0.983333333333334,5.76659352968748,2.82,0.443019472906049,8.96,1.91,3768.2,2.6,1.44,2.6852,0.45254833995939,-0.378409568
OCN-Cl-Pb,0.773333333333333,5.76659352968748,2.904,0.265103054644222,5.04,2.33,3768.2,3,1.04,2.6852,0.15556349186104,-0.463508924
OCN-Cl-Pd,0.838333333333333,5.35323122707622,2.878,0.319140970908075,8.72,2.2,3768.2,2.8,1.44,2.6852,0.247487373415291,0.0539925
OCN-Cl-Pt,0.798333333333334,5.6512305774965,2.894,0.285662686264043,8.48,2.28,3768.2,3,1.44,2.6852,0.190918830920368,0.295913028
OCN-Cl-Sr,1.46333333333333,7.16432974703968,2.628,0.787757332306276,24.64,0.95,3768.2,2.8,1.44,2.6852,1.13137084989848,-1.404603284
OCN-Cl-Zn,1.11333333333333,6.24579343607304,2.768,0.551131362113503,7.04,1.65,3768.2,2.6,1.44,2.6852,0.636396103067893,-0.476738126
OCN-CN-Ba,1.17666666666667,6.87979808313127,2.585,0.803211356141508,20,0.89,3768.2,2.66666666666667,1,3.64433333333333,1.17379725676967,-0.56789207
OCN-CN-Be,0.95,11.9926621806151,2.69833333333333,0.582814787035019,5,1.57,3768.2,2,1,3.64433333333333,0.692964645562816,0.176640335
OCN-CN-Ca,1.14,7.94318073512654,2.60333333333333,0.774266459580783,20.5555555555556,1,3768.2,2.33333333333333,1,3.64433333333333,1.09601551083915,-0.4877773783
OCN-CN-Cd,0.91,6.39908841183018,2.71833333333333,0.534956811865944,4.5,1.69,3768.2,2.5,1,3.64433333333333,0.608111831820431,0.227098925
OCN-CN-Co,0.846666666666667,5.93075959015133,2.75,0.455779073674793,6.5,1.88,3768.2,2.33333333333333,1,3.64433333333333,0.473761543394987,0.331167425
OCN-CN-Cu,0.84,5.95477102443486,2.75333333333333,0.447277935696606,5.5,1.9,3768.2,2.33333333333333,1,3.64433333333333,0.459619407771256,0.4774888133
OCN-CN-Fe,0.863333333333333,5.70531974888786,2.74166666666667,0.476922164006862,7.22222222222222,1.83,3768.2,2.33333333333333,1,3.64433333333333,0.509116882454314,0.31368336
OCN-CN-Mg,1.03666666666667,9.38570333103364,2.655,0.678328679969553,4.83333333333333,1.31,3768.2,2.16666666666667,1,3.64433333333333,0.876812408671319,-0.2170177217
OCN-CN-Mn,0.956666666666667,6.18490953699149,2.695,0.590584603914435,8.05555555555555,1.55,3768.2,2.33333333333333,1,3.64433333333333,0.707106781186547,0.0210361633
OCN-CN-Ni,0.836666666666667,6.00222139968463,2.755,0.443019472906049,6,1.91,3768.2,2.33333333333333,1,3.64433333333333,0.45254833995939,0.2979992417
OCN-CN-Pb,0.696666666666667,6.00222139968463,2.825,0.265103054644222,2.66666666666667,2.33,3768.2,2.66666666666667,0.666666666666667,3.64433333333333,0.15556349186104,0.2456854533
OCN-CN-Pd,0.74,5.57196876512957,2.80333333333333,0.319140970908075,5.83333333333333,2.2,3768.2,2.5,1,3.64433333333333,0.247487373415291,0.5270320167
OCN-CN-Pt,0.713333333333333,5.88214462007346,2.81666666666667,0.285662686264043,5.66666666666667,2.28,3768.2,2.66666666666667,1,3.64433333333333,0.190918830920368,0.6520989883
OCN-CN-Sr,1.15666666666667,7.45707029647524,2.595,0.787757332306276,20.2777777777778,0.95,3768.2,2.5,1,3.64433333333333,1.13137084989848,-0.530346055
OCN-CN-Zn,0.923333333333333,6.50100181797262,2.71166666666667,0.551131362113503,4.66666666666667,1.65,3768.2,2.33333333333333,1,3.64433333333333,0.636396103067893,0.2306391633
OCN-F-Ba,1.76666666666667,7.54831036850645,2.78,0.908097311920564,24.24,0.89,3769.5,2.8,1.44,2.5806,1.17379725676967,-1.746613234
OCN-F-Be,1.42666666666667,13.1579931838248,2.916,0.76590423612167,7.36,1.57,3769.5,2,1.44,2.5806,0.692964645562816,-1.121196972
OCN-F-Ca,1.71166666666667,8.71502226916917,2.802,0.891401751542897,24.88,1,3769.5,2.4,1.44,2.5806,1.09601551083915,-1.786664642
OCN-F-Cd,1.36666666666667,7.02088997734406,2.94,0.730456367481674,6.64,1.69,3769.5,2.6,1.44,2.5806,0.608111831820431,-0.771879974
OCN-F-Co,1.27166666666667,6.50705348711092,2.978,0.667960054655339,9.52,1.88,3769.5,2.4,1.44,2.5806,0.473761543394987,-0.69394277
OCN-F-Cu,1.26166666666667,6.53339812051077,2.982,0.660947392745558,8.08,1.9,3769.5,2.4,1.44,2.5806,0.459619407771256,-0.436772444
OCN-F-Fe,1.29666666666667,6.25970758091988,2.968,0.685139312535294,10.24,1.83,3769.5,2.4,1.44,2.5806,0.509116882454314,-0.693145534
OCN-F-Mg,1.55666666666667,10.2977152691554,2.864,0.831736655486387,7.12,1.31,3769.5,2.2,1.44,2.5806,0.876812408671319,-1.535015594
OCN-F-Mn,1.43666666666667,6.7858992694592,2.912,0.77150135530994,10.96,1.55,3769.5,2.4,1.44,2.5806,0.707106781186547,-1.0734545
OCN-F-Ni,1.25666666666667,6.58545926462568,2.984,0.657411410756611,8.8,1.91,3769.5,2.4,1.44,2.5806,0.45254833995939,-0.731690012
OCN-F-Pb,1.04666666666667,6.58545926462568,3.068,0.493699544326619,4.8,2.33,3769.5,2.8,1.04,2.5806,0.15556349186104,-0.773309594
OCN-F-Pd,1.11166666666667,6.11339883737967,3.042,0.547107278760105,8.56,2.2,3769.5,2.6,1.44,2.5806,0.247487373415291,-0.257704482
OCN-F-Pt,1.07166666666667,6.45371458409818,3.058,0.514463104845921,8.32,2.28,3769.5,2.8,1.44,2.5806,0.190918830920368,0.114981858
OCN-F-Sr,1.73666666666667,8.18167631628318,2.792,0.89926127549485,24.56,0.95,3769.5,2.6,1.44,2.5806,1.13137084989848,-1.779832296
OCN-F-Zn,1.38666666666667,7.13270634331576,2.932,0.742626000251458,6.88,1.65,3769.5,2.4,1.44,2.5806,0.636396103067893,-0.828736844
OCN-I-Ba,1.32666666666667,6.10310690068249,2.516,0.803211356141508,24.48,0.89,3768.2,3.4,1.44,2.399,1.17379725676967,-1.175700336
OCN-I-Be,0.986666666666667,10.6387568977538,2.652,0.582814787035019,7.84,1.57,3768.2,2.6,1.44,2.399,0.692964645562816,-0.078566508
OCN-I-Ca,1.27166666666667,7.04643952804131,2.538,0.774266459580783,25.12,1,3768.2,3,1.44,2.399,1.09601551083915,-1.0685766
OCN-I-Cd,0.926666666666667,5.676666694634,2.676,0.534956811865944,7.28,1.69,3768.2,3.2,1.44,2.399,0.608111831820431,-0.225042696
OCN-I-Co,0.831666666666667,5.26120960870805,2.714,0.455779073674793,10,1.88,3768.2,3,1.44,2.399,0.473761543394987,0.076008338
OCN-I-Cu,0.821666666666667,5.28251028475992,2.718,0.447277935696606,8.56,1.9,3768.2,3,1.44,2.399,0.459619407771256,0.13329901
OCN-I-Fe,0.856666666666667,5.06122067963215,2.704,0.476922164006862,10.72,1.83,3768.2,3,1.44,2.399,0.509116882454314,0.001053786
OCN-I-Mg,1.11666666666667,8.3261092949575,2.6,0.678328679969553,7.6,1.31,3768.2,2.8,1.44,2.399,0.876812408671319,-0.635813944
OCN-I-Mn,0.996666666666667,5.48666743110715,2.648,0.590584603914435,11.44,1.55,3768.2,3,1.44,2.399,0.707106781186547,-0.405122346
OCN-I-Ni,0.816666666666667,5.32460377487803,2.72,0.443019472906049,9.28,1.91,3768.2,3,1.44,2.399,0.45254833995939,-0.04182099
OCN-I-Pb,0.606666666666667,5.32460377487803,2.804,0.265103054644222,5.52,2.33,3768.2,3.4,1.04,2.399,0.15556349186104,-0.302941278
OCN-I-Pd,0.671666666666667,4.94292428497726,2.778,0.319140970908075,9.04,2.2,3768.2,3.2,1.44,2.399,0.247487373415291,0.134354672
OCN-I-Pt,0.631666666666667,5.21808300008181,2.794,0.285662686264043,8.8,2.28,3768.2,3.4,1.44,2.399,0.190918830920368,0.310118722
OCN-I-Sr,1.29666666666667,6.61520827142916,2.528,0.787757332306276,24.8,0.95,3768.2,3.2,1.44,2.399,1.13137084989848,-1.133757082
OCN-I-Zn,0.946666666666667,5.7670746404464,2.668,0.551131362113503,7.44,1.65,3768.2,3,1.44,2.399,0.636396103067893,-0.134747164
OCN-NC-Ba,1.17666666666667,6.92279793747556,2.585,0.803211356141508,20,0.89,3768.2,2.66666666666667,1,3.64433333333333,1.17379725676967,-0.6096224567
OCN-NC-Be,0.95,12.0676182651885,2.69833333333333,0.582814787035019,5,1.57,3768.2,2,1,3.64433333333333,0.692964645562816,0.07015281
OCN-NC-Ca,1.14,7.99282690359161,2.60333333333333,0.774266459580783,20.5555555555556,1,3768.2,2.33333333333333,1,3.64433333333333,1.09601551083915,-0.558467795
OCN-NC-Cd,0.91,6.43908375272827,2.71833333333333,0.534956811865944,4.5,1.69,3768.2,2.5,1,3.64433333333333,0.608111831820431,0.2110710317
OCN-NC-Co,0.846666666666667,5.96782779992231,2.75,0.455779073674793,6.5,1.88,3768.2,2.33333333333333,1,3.64433333333333,0.473761543394987,0.3792569383
OCN-NC-Cu,0.84,5.99198930956623,2.75333333333333,0.447277935696606,5.5,1.9,3768.2,2.33333333333333,1,3.64433333333333,0.459619407771256,0.4848212733
OCN-NC-Fe,0.863333333333333,5.74097892307079,2.74166666666667,0.476922164006862,7.22222222222222,1.83,3768.2,2.33333333333333,1,3.64433333333333,0.509116882454314,0.26821829
OCN-NC-Mg,1.03666666666667,9.44436549978866,2.655,0.678328679969553,4.83333333333333,1.31,3768.2,2.16666666666667,1,3.64433333333333,0.876812408671319,-0.3117825733
OCN-NC-Mn,0.956666666666667,6.22356622516891,2.695,0.590584603914435,8.05555555555555,1.55,3768.2,2.33333333333333,1,3.64433333333333,0.707106781186547,0.36279359
OCN-NC-Ni,0.836666666666667,6.03973625736068,2.755,0.443019472906049,6,1.91,3768.2,2.33333333333333,1,3.64433333333333,0.45254833995939,0.2603451867
OCN-NCO-Ba,1.24333333333333,6.31555741837449,2.70714285714286,0.803211356141508,17.8775510204082,0.89,3768.2,2.57142857142857,1.06122448979592,3.12371428571429,1.17379725676967,-0.9693679443
OCN-NCO-Be,1.01666666666667,11.0090944073711,2.80428571428571,0.582814787035019,5.30612244897959,1.57,3768.2,2,1.06122448979592,3.12371428571429,0.692964645562816,-0.4943247943
OCN-NCO-Ca,1.20666666666667,7.29172766570286,2.72285714285714,0.774266459580783,18.3673469387755,1,3768.2,2.28571428571429,1.06122448979592,3.12371428571429,1.09601551083915,-0.9753067114
OCN-NCO-Cd,0.976666666666667,5.87427273327393,2.82142857142857,0.534956811865944,4.81632653061224,1.69,3768.2,2.42857142857143,1.06122448979592,3.12371428571429,0.608111831820431,-0.3345618529
OCN-NCO-Co,0.913333333333333,5.44435349316649,2.84857142857143,0.455779073674793,6.77551020408163,1.88,3768.2,2.28571428571429,1.06122448979592,3.12371428571429,0.473761543394987,-0.21181992
OCN-NCO-Cu,0.906666666666667,5.46639565052093,2.85142857142857,0.447277935696606,5.79591836734694,1.9,3768.2,2.28571428571429,1.06122448979592,3.12371428571429,0.459619407771256,-0.1188052171
OCN-NCO-Fe,0.93,5.23740290469215,2.84142857142857,0.476922164006862,7.26530612244898,1.83,3768.2,2.28571428571429,1.06122448979592,3.12371428571429,0.509116882454314,-0.2992787214
OCN-NCO-Mg,1.10333333333333,8.61594302372211,2.76714285714286,0.678328679969553,5.14285714285714,1.31,3768.2,2.14285714285714,1.06122448979592,3.12371428571429,0.876812408671319,-0.7960849386
OCN-NCO-Mn,1.02333333333333,5.67765955284307,2.80142857142857,0.590584603914435,7.75510204081633,1.55,3768.2,2.28571428571429,1.06122448979592,3.12371428571429,0.707106781186547,-0.5423594457
OCN-NCO-Ni,0.903333333333334,5.50995442445474,2.85285714285714,0.443019472906049,6.28571428571429,1.91,3768.2,2.28571428571429,1.06122448979592,3.12371428571429,0.45254833995939,-0.3165112214
OCN-NCO-Pb,0.763333333333333,5.50995442445474,2.91285714285714,0.265103054644222,3.02040816326531,2.33,3768.2,2.57142857142857,0.73469387755102,3.12371428571429,0.15556349186104,-0.2914530143
OCN-NCO-Pd,0.806666666666667,5.11498858605289,2.89428571428571,0.319140970908075,6.12244897959184,2.2,3768.2,2.42857142857143,1.06122448979592,3.12371428571429,0.247487373415291,-0.0407357257
OCN-NCO-Pt,0.78,5.39972563763798,2.90571428571429,0.285662686264043,5.95918367346939,2.28,3768.2,2.57142857142857,1.06122448979592,3.12371428571429,0.190918830920368,0.1823525557
OCN-NCO-Sr,1.22333333333333,6.84548515249581,2.71571428571429,0.787757332306276,18.1224489795918,0.95,3768.2,2.42857142857143,1.06122448979592,3.12371428571429,1.13137084989848,-0.9767136343
OCN-NCO-Zn,0.99,5.96782779992231,2.81571428571429,0.551131362113503,4.97959183673469,1.65,3768.2,2.28571428571429,1.06122448979592,3.12371428571429,0.636396103067893,-0.3679207771
OCN-NC-Pb,0.696666666666667,6.03973625736068,2.825,0.265103054644222,2.66666666666667,2.33,3768.2,2.66666666666667,0.666666666666667,3.64433333333333,0.15556349186104,0.2323094233
OCN-NC-Pd,0.74,5.60679447402631,2.80333333333333,0.319140970908075,5.83333333333333,2.2,3768.2,2.5,1,3.64433333333333,0.247487373415291,0.5723384267
OCN-NC-Pt,0.713333333333333,5.91890897839313,2.81666666666667,0.285662686264043,5.66666666666667,2.28,3768.2,2.66666666666667,1,3.64433333333333,0.190918830920368,0.8205743917
OCN-NCS-Ba,1.02833333333333,6.26378822587018,2.58428571428571,0.803211356141508,17.9183673469388,0.89,3768.2,2.71428571428571,1.06122448979592,3.43828571428571,1.17379725676967,-0.659597151
OCN-NCS-Be,0.801666666666667,10.91885186979,2.68142857142857,0.582814787035019,5.42857142857143,1.57,3768.2,2.14285714285714,1.06122448979592,3.43828571428571,0.692964645562816,-0.0507729239
OCN-NCS-Ca,0.991666666666667,7.23195671783427,2.6,0.774266459580783,18.4081632653061,1,3768.2,2.42857142857143,1.06122448979592,3.43828571428571,1.09601551083915,-0.6528362724
OCN-NCS-Cd,0.761666666666667,5.82612079104522,2.69857142857143,0.534956811865944,4.93877551020408,1.69,3768.2,2.57142857142857,1.06122448979592,3.43828571428571,0.608111831820431,0.000179989
OCN-NCS-Co,0.698333333333333,5.39972563763798,2.72571428571429,0.455779073674793,6.89795918367347,1.88,3768.2,2.42857142857143,1.06122448979592,3.43828571428571,0.473761543394987,0.1443025561
OCN-NCS-Cu,0.691666666666667,5.42158711344498,2.72857142857143,0.447277935696606,5.91836734693878,1.9,3768.2,2.42857142857143,1.06122448979592,3.43828571428571,0.459619407771256,0.2180801561
OCN-NCS-Fe,0.715,5.19447144176114,2.71857142857143,0.476922164006862,7.38775510204082,1.83,3768.2,2.42857142857143,1.06122448979592,3.43828571428571,0.509116882454314,0.046488659
OCN-NCS-Mg,0.888333333333333,8.54531736339584,2.64428571428571,0.678328679969553,5.26530612244898,1.31,3768.2,2.28571428571429,1.06122448979592,3.43828571428571,0.876812408671319,-0.4297845067
OCN-NCS-Mn,0.808333333333333,5.63111926654785,2.67857142857143,0.590584603914435,7.87755102040816,1.55,3768.2,2.42857142857143,1.06122448979592,3.43828571428571,0.707106781186547,-0.1945413524
OCN-NCS-Ni,0.688333333333333,5.46478883218894,2.73,0.443019472906049,6.40816326530612,1.91,3768.2,2.42857142857143,1.06122448979592,3.43828571428571,0.45254833995939,0.0483059833
OCN-NCS-Pb,0.548333333333333,5.46478883218894,2.79,0.265103054644222,3.14285714285714,2.33,3768.2,2.71428571428571,0.73469387755102,3.43828571428571,0.15556349186104,0.0190821576
OCN-NCS-Pd,0.591666666666667,5.073060564308,2.77142857142857,0.319140970908075,6.24489795918367,2.2,3768.2,2.57142857142857,1.06122448979592,3.43828571428571,0.247487373415291,0.2850998161
OCN-NCS-Pt,0.565,5.35546360065736,2.78285714285714,0.285662686264043,6.08163265306122,2.28,3768.2,2.71428571428571,1.06122448979592,3.43828571428571,0.190918830920368,0.4842843447
OCN-NC-Sr,1.15666666666667,7.50367819582184,2.595,0.787757332306276,20.2777777777778,0.95,3768.2,2.5,1,3.64433333333333,1.13137084989848,-0.586086495