Compound,mean EN difference,geom-mean_eta_both,MagpieData mean Electronegativity,max ionic char,MagpieData avg_dev MendeleevNumber,MagpieData minimum Electronegativity,MagpieData range MeltingT,MagpieData mean Row,MagpieData avg_dev NpValence,MagpieData mean GSbandgap,std_dev EN difference,Formation_energy
PH-SCN-Ce,0.886666666666666,4.10923952359783,2.28,0.602118079548795,19.2777777777778,1.12,3808.99,2.83333333333333,1.33333333333333,3.76883333333333,0.620671679177754,-0.313057967833333
PH-SCN-Co,0.633333333333333,4.20596280789888,2.40666666666667,0.285662686264043,8.33333333333333,1.88,3808.99,2.5,1.33333333333333,3.76883333333333,0.181934053986603,0.1342443188
PH-SCN-Cr,0.706666666666666,4.23723505506388,2.37,0.378798640994549,10.3333333333333,1.66,3808.99,2.5,1.33333333333333,3.76883333333333,0.308922859842604,0.2446038788
PH-SCN-Fe,0.65,4.7843821091272,2.39833333333333,0.306514536143557,9,1.83,3808.99,2.5,1.33333333333333,3.76883333333333,0.210792156716832,0.2195473022
PH-SCN-Ga,0.656666666666666,5.2185726391013,2.395,0.314923658853183,5,1.81,3808.99,2.5,1.16666666666667,3.76883333333333,0.222336081942031,0.2235314622
PH-SCN-Gd,0.86,4.60748623467629,2.29333333333333,0.571043601320927,15.9444444444444,1.2,3808.99,2.83333333333333,1.33333333333333,3.76883333333333,0.574485276863849,-0.283938744499999
PH-SCN-In,0.666666666666666,4.77217699970704,2.39,0.327598737602997,4.83333333333333,1.78,3808.99,2.66666666666667,1.16666666666667,3.76883333333333,0.239652526240249,0.1914671355
PH-SCN-Ir,0.526666666666666,4.04213787446658,2.46,0.165251669366129,7.88888888888889,2.19,3808.99,2.83333333333333,1.33333333333333,3.76883333333333,0.005773502691896,0.0722570172
PH-SCN-La,0.893333333333333,5.04942973006944,2.27666666666667,0.609723571536479,19.8333333333333,1.1,3808.99,2.83333333333333,1.33333333333333,3.76883333333333,0.63221831672295,-0.2890150395
PH-SCN-Lu,0.836666666666666,4.65940594268038,2.305,0.543069966787304,12.1111111111111,1.27,3808.99,2.83333333333333,1.33333333333333,3.76883333333333,0.534072404579504,-0.2540715478
PH-SCN-Nd,0.88,4.25269955365269,2.28333333333333,0.59444549493668,18.1666666666667,1.14,3808.99,2.83333333333333,1.33333333333333,3.76883333333333,0.609125055578355,-0.2549163545
PH-SCN-Rh,0.5,4.54089472426602,2.47333333333333,0.165251669366129,8.11111111111111,2.19,3808.99,2.66666666666667,1.33333333333333,3.76883333333333,0.049328828623162,0.0490308222
PH-SCN-Ru,0.526666666666666,4.47229063131659,2.46,0.165251669366129,8.77777777777778,2.19,3808.99,2.66666666666667,1.33333333333333,3.76883333333333,0.005773502691896,0.2363553088
PH-SCN-Sc,0.806666666666666,5.90265130289054,2.32,0.506187801966654,20.3888888888889,1.36,3808.99,2.5,1.33333333333333,3.76883333333333,0.482113402980392,-0.2385533945
PH-SCN-Sm,0.87,4.22165684437427,2.28833333333333,0.582814787035019,17.0555555555556,1.17,3808.99,2.83333333333333,1.33333333333333,3.76883333333333,0.59180514811324,-0.2238750095
PH-SCN-Y,0.853333333333333,5.56362477780673,2.29666666666667,0.563121432466778,20.1111111111111,1.22,3808.99,2.66666666666667,1.33333333333333,3.76883333333333,0.562938717801503,-0.3126021728
PH-SH-Al,0.381666666666666,7.44773139339492,2.156,0.209607008802607,6.08,1.61,919.46,2.2,1.52,3.9066,0.417193000900063,-0.3158702414
PH-SH-Bi,0.245,4.46972266795819,2.238,0.075405485239789,3.04,2.02,530.39,2.8,1.6,3.9066,0.127279220613579,0.0879447366
PH-SH-Ce,0.545,4.21465027420394,2.058,0.413099512040662,23.6,1.12,1056.99,2.8,1.68,3.9066,0.763675323681471,-0.789956085400002
PH-SH-Co,0.291666666666666,4.31385471686548,2.21,0.115294095056517,9.84,1.88,1753.99,2.4,1.68,3.9066,0.226274169979695,-0.2081664434
PH-SH-Cr,0.365,4.3459291638117,2.166,0.190711651828668,12.72,1.66,2165.99,2.4,1.68,3.9066,0.381837661840736,-0.2070857114
PH-SH-Fe,0.308333333333333,4.90711170578697,2.2,0.131184943737157,10.8,1.83,1796.99,2.4,1.68,3.9066,0.261629509039023,-0.0744782334
PH-SH-Ga,0.315,5.35244014811878,2.196,0.137762910230166,5.84,1.81,374.35,2.4,1.52,3.9066,0.275771644662754,-0.0869379774
PH-SH-Gd,0.518333333333333,4.72567807518972,2.074,0.378798640994549,19.76,1.2,1571.99,2.8,1.68,3.9066,0.707106781186548,-0.6946987934
PH-SH-In,0.325,4.89459350930098,2.19,0.147856211033789,5.6,1.78,415.74,2.6,1.52,3.9066,0.29698484809835,-0.1296077374
PH-SH-Ir,0.185,4.14582732477826,2.274,0.037311126631478,9.2,2.19,2724.99,2.8,1.68,3.9066,0,-0.2877850814
PH-SH-La,0.551666666666666,5.1789583630252,2.054,0.421663847129056,24.24,1.1,1178.99,2.8,1.68,3.9066,0.777817459305202,-0.7683029214
PH-SH-Lu,0.495,4.77892963434547,2.088,0.348856349613711,15.28,1.27,1921.99,2.8,1.68,3.9066,0.657609306503489,-0.7221457494
PH-SH-Nd,0.538333333333333,4.3617903597443,2.062,0.40452745776073,22.32,1.14,1279.99,2.8,1.68,3.9066,0.749533188057741,-0.7199564674
PH-SH-Rh,0.158333333333333,4.65737835063033,2.29,0.037311126631478,9.52,2.19,2222.99,2.6,1.68,3.9066,0.056568542494924,-0.3097098874
PH-SH-Ru,0.185,4.58701441650081,2.274,0.037311126631478,10.48,2.19,2592.99,2.6,1.68,3.9066,0,-0.0731350814
PH-SH-Sc,0.465,6.05406688741189,2.106,0.310714689453374,24.88,1.36,1799.99,2.4,1.68,3.9066,0.5939696961967,-0.6839951534
PH-SH-Sm,0.528333333333333,4.32995133882061,2.068,0.39166222482331,21.04,1.17,1330.99,2.8,1.68,3.9066,0.728319984622144,-0.7205716594
PH-SH-Y,0.511666666666666,5.70634360949116,2.078,0.370229618598997,24.56,1.22,1784.99,2.6,1.68,3.9066,0.692964645562817,-0.7612371694
S-Br-Al,1.16,8.59428139744321,2.38333333333333,0.365948438141932,8.22222222222222,1.61,667.67,3.33333333333333,1.55555555555556,1.21966666666667,0,-1.270666589
S-Br-Bi,0.75,5.15781952220123,2.52,0.198203144033059,3.55555555555556,2.02,278.6,4.33333333333333,0.666666666666667,1.21966666666667,0,-0.558956569
S-Br-Ce,1.65,4.86347970073726,2.22,0.571043601320927,34,1.12,805.2,4.33333333333333,2,1.21966666666667,0,-1.3044348257
S-Br-Co,0.89,4.97795629113444,2.47333333333333,0.252932696862804,14.8888888888889,1.88,1502.2,3.66666666666667,2,1.21966666666667,0,-0.530009309
S-Br-Cr,1.11,5.01496847755239,2.4,0.344593745673159,18.8888888888889,1.66,1914.2,3.66666666666667,2,1.21966666666667,0,-1.104630869
S-Br-Fe,0.94,5.66254294369724,2.45666666666667,0.273287979294598,16.2222222222222,1.83,1545.2,3.66666666666667,2,1.21966666666667,0,-0.498811889
S-Br-Ga,0.96,6.17642801091098,2.45,0.281525453515926,7.77777777777778,1.81,122.56,3.66666666666667,1.55555555555556,1.21966666666667,0,-0.7715368323
S-Br-Gd,1.57,5.45317829371867,2.24666666666667,0.539019713789166,28.6666666666667,1.2,1320.2,4.33333333333333,2,1.21966666666667,0,-2.24608382566666
S-Br-In,0.99,5.64809761833488,2.44,0.29397173014286,7.33333333333333,1.78,163.95,4,1.55555555555556,1.21966666666667,0,-0.886526239
S-Br-Ir,0.57,4.78406171924416,2.58,0.134458537778234,14,2.2,2473.2,4.33333333333333,2,1.21966666666667,0,-0.3903926423
S-Br-La,1.67,5.97623936289566,2.21333333333333,0.578906340112088,34.8888888888889,1.1,927.2,4.33333333333333,2,1.21966666666667,0,-2.3352233857
S-Br-Lu,1.5,5.51462772846104,2.27,0.510330693299954,22.4444444444444,1.27,1670.2,4.33333333333333,2,1.21966666666667,0,-2.2121213823
S-Br-Nd,1.63,5.03327144444855,2.22666666666667,0.563121432466778,32.2222222222222,1.14,1028.2,4.33333333333333,2,1.21966666666667,0,-2.228432119
S-Br-Rh,0.49,5.37436408557579,2.60666666666667,0.109168515365691,14.4444444444444,2.28,1971.2,4,2,1.21966666666667,0,-0.6334722423
S-Br-Ru,0.57,5.29316789062755,2.58,0.134458537778234,15.7777777777778,2.2,2341.2,4,2,1.21966666666667,0,-0.412374949
S-Br-Sc,1.41,6.98606752594549,2.3,0.472707575956951,35.7777777777778,1.36,1548.2,3.66666666666667,2,1.21966666666667,0,-2.0913743557
S-Br-Sm,1.6,4.99653092699648,2.23666666666667,0.551131362113503,30.4444444444444,1.17,1079.2,4.33333333333333,2,1.21966666666667,0,-2.2272082057
S-Br-Y,1.55,6.58481356805672,2.25333333333333,0.530881557605336,35.3333333333333,1.22,1533.2,4,2,1.21966666666667,0,-2.280718769
S-Cl-Al,1.26,8.92262057103911,2.45,0.451531264011087,8,1.61,761.87,3,1.55555555555556,1.565,0,-1.4298299423
S-Cl-Bi,0.85,5.35487080795273,2.58666666666667,0.277400390009806,3.11111111111111,2.02,372.8,4,0.666666666666667,1.565,0,-0.6388421157
S-Cl-Ce,1.75,5.0492859167422,2.28666666666667,0.646686671641399,33.7777777777778,1.12,899.4,4,2,1.565,0,-2.487706319
S-Cl-Co,0.99,5.16813601405041,2.54,0.336084236664527,14.6666666666667,1.88,1596.4,3.33333333333333,2,1.565,0,-0.7194407423
S-Cl-Cr,1.21,5.2065622280222,2.46666666666667,0.430217175269077,18.6666666666667,1.66,2008.4,3.33333333333333,2,1.565,0,-1.148540959
S-Cl-Fe,1.04,5.87887687373797,2.52333333333333,0.357394966944066,16,1.83,1639.4,3.33333333333333,2,1.565,0,-0.6698593657
S-Cl-Ga,1.06,6.41239460021539,2.51666666666667,0.365948438141932,7.55555555555556,1.81,216.76,3.33333333333333,1.55555555555556,1.565,0,-0.8968829523
S-Cl-Gd,1.67,5.66151357756955,2.31333333333333,0.617260240551931,28.4444444444444,1.2,1414.4,4,2,1.565,0,-2.376595089
S-Cl-In,1.09,5.86387967370774,2.50666666666667,0.378798640994549,7.11111111111111,1.78,258.15,3.66666666666667,1.55555555555556,1.565,0,-0.9835274123
S-Cl-Ir,0.67,4.96683382067846,2.64666666666667,0.205784147383453,13.7777777777778,2.2,2567.4,4,2,1.565,0,-0.5254211857
S-Cl-La,1.77,6.20455786945611,2.28,0.653855859626721,34.6666666666667,1.1,1021.4,4,2,1.565,0,-2.4609876123
S-Cl-Lu,1.6,5.72531064973362,2.33666666666667,0.590584603914435,22.2222222222222,1.27,1764.4,4,2,1.565,0,-2.3510069023
S-Cl-Nd,1.73,5.22556444838088,2.29333333333333,0.639441117518025,32,1.14,1122.4,4,2,1.565,0,-2.351257189
S-Cl-Rh,0.59,5.57968832164123,2.67333333333333,0.176012566668297,14.2222222222222,2.28,2065.4,3.66666666666667,2,1.565,0,-0.7752265523
S-Cl-Ru,0.67,5.49539007658367,2.64666666666667,0.205784147383453,15.5555555555556,2.2,2435.4,3.66666666666667,2,1.565,0,-0.507024049
S-Cl-Sc,1.51,7.25296588917996,2.36666666666667,0.555141933777059,35.5555555555556,1.36,1642.4,3.33333333333333,2,1.565,0,-2.235280199
S-Cl-Sm,1.7,5.18742028231878,2.30333333333333,0.628432598279113,30.2222222222222,1.17,1173.4,4,2,1.565,0,-2.3516532057
S-Cl-Y,1.65,6.8363822734824,2.32,0.609723571536479,35.1111111111111,1.22,1627.4,3.66666666666667,2,1.565,0,-2.4115038757
S-CN-Al,0.73,9.28720636490911,2.445,0.400239577896362,5,1.61,3759.95,2.5,1,3.28375,0.664680374315355,-0.0729509893
S-CN-Bi,0.525,5.57367534066205,2.5475,0.229025515499885,3.75,2.02,3759.95,3.25,0.5,3.28375,0.37476659402887,0.4160307883
S-CN-Ce,0.975,5.25560399334037,2.3225,0.602118079548795,25.25,1.12,3759.95,3.25,1.25,3.28375,1.01116269709676,-0.7419528443
S-CN-Co,0.595,5.37931040575619,2.5125,0.285662686264043,9.125,1.88,3759.95,2.75,1.25,3.28375,0.473761543394987,0.3441573582
S-CN-Cr,0.705,5.41930674720508,2.4575,0.378798640994549,12.5,1.66,3759.95,2.75,1.25,3.28375,0.629325035256027,0.1268038307
S-CN-Fe,0.62,6.11909273577212,2.5,0.306514536143557,10.25,1.83,3759.95,2.75,1.25,3.28375,0.509116882454314,0.3715892707
S-CN-Ga,0.63,6.67441044604386,2.495,0.314923658853183,4.75,1.81,3759.95,2.75,1,3.28375,0.523259018078045,0.3181231408
S-CN-Gd,0.935,5.89284779219296,2.3425,0.571043601320927,20.75,1.2,3759.95,3.25,1.25,3.28375,0.954594154601839,-0.803163974249998
S-CN-In,0.645,6.10348273751346,2.4875,0.327598737602997,4.5,1.78,3759.95,3,1,3.28375,0.544472221513641,0.2496249382
S-CN-Ir,0.435,5.16978283516531,2.5925,0.161717396775766,8.375,2.2,3759.95,3.25,1.25,3.28375,0.247487373415291,0.4098617558
S-CN-La,0.985,6.45808133136261,2.3175,0.609723571536479,26,1.1,3759.95,3.25,1.25,3.28375,1.02530483272049,-0.8786143917
S-CN-Lu,0.9,5.9592516664749,2.36,0.543069966787304,15.5,1.27,3759.95,3.25,1.25,3.28375,0.905096679918781,-0.7771510343
S-CN-Nd,0.965,5.43908541429705,2.3275,0.59444549493668,23.75,1.14,3759.95,3.25,1.25,3.28375,0.997020561473032,-0.7916411143
S-CN-Rh,0.395,5.80767908736936,2.6125,0.134458537778234,8.75,2.28,3759.95,3,1.25,3.28375,0.190918830920368,0.2468178483
S-CN-Ru,0.435,5.71993634499719,2.5925,0.161717396775766,9.875,2.2,3759.95,3,1.25,3.28375,0.247487373415291,0.4146215008
S-CN-Sc,0.855,7.54932818605961,2.3825,0.506187801966654,26.75,1.36,3759.95,2.75,1.25,3.28375,0.841457069611991,-0.6909963018
S-CN-Sm,0.95,5.39938264547307,2.335,0.582814787035019,22.25,1.17,3759.95,3.25,1.25,3.28375,0.975807358037435,-0.7862523867
S-CN-Y,0.925,7.11572261285157,2.3475,0.563121432466778,26.375,1.22,3759.95,3,1.25,3.28375,0.940452018978108,-0.8310695018
Se-Br-Al,1.145,8.13624966336874,2.37333333333333,0.365948438141932,8.44444444444444,1.61,667.67,3.66666666666667,1.55555555555556,0.752,0,-1.1086910033
Se-Br-Bi,0.735,4.88293382663862,2.51,0.198203144033059,3.33333333333333,2.02,278.6,4.66666666666667,0.666666666666667,0.752,0,-0.58184079
Se-Br-Ce,1.635,4.60428082907507,2.21,0.571043601320927,34.2222222222222,1.12,805.2,4.66666666666667,2,0.752,0,-2.0843408233
Se-Br-Co,0.875,4.71265639615386,2.46333333333333,0.252932696862804,15.1111111111111,1.88,1502.2,4,2,0.752,0,-0.49883952
Se-Br-Cr,1.095,4.74769602021983,2.39,0.344593745673159,19.1111111111111,1.66,1914.2,4,2,0.752,0,-0.9475635567
Se-Br-Fe,0.925,5.36075804233895,2.44666666666667,0.273287979294598,16.4444444444444,1.83,1545.2,4,2,0.752,0,-0.4189705867
Se-Br-Ga,0.945,5.84725563437403,2.44,0.281525453515926,8,1.81,228.2,4,1.55555555555556,0.752,0,-0.68953553
Se-Br-Gd,1.555,5.16255146937099,2.23666666666667,0.539019713789166,28.8888888888889,1.2,1320.2,4.66666666666667,2,0.752,0,-2.11200927000001
Se-Br-In,0.975,5.34708257976313,2.43,0.29397173014286,7.55555555555556,1.78,228.2,4.33333333333333,1.55555555555556,0.752,0,-0.8314731967
Se-Br-Ir,0.555,4.52909542434991,2.57,0.134458537778234,14.2222222222222,2.2,2473.2,4.66666666666667,2,0.752,0,-0.3740408633
Se-Br-La,1.655,5.65773602887107,2.20333333333333,0.578906340112088,35.1111111111111,1.1,927.2,4.66666666666667,2,0.752,0,-2.21655338
Se-Br-Lu,1.485,5.22072596001376,2.26,0.510330693299954,22.6666666666667,1.27,1670.2,4.66666666666667,2,0.752,0,-2.06016274
Se-Br-Nd,1.615,4.76502353154519,2.21666666666667,0.563121432466778,32.4444444444444,1.14,1028.2,4.66666666666667,2,0.752,0,-2.11092818
Se-Br-Rh,0.475,5.08793765992999,2.59666666666667,0.109168515365691,14.6666666666667,2.28,1971.2,4.33333333333333,2,0.752,0,-0.6330929467
Se-Br-Ru,0.555,5.01106881153378,2.57,0.134458537778234,16,2.2,2341.2,4.33333333333333,2,0.752,0,-0.3100349867
Se-Br-Sc,1.395,6.61374545789893,2.29,0.472707575956951,36,1.36,1548.2,4,2,0.752,0,-1.9528606467
Se-Br-Sm,1.585,4.73024109786315,2.22666666666667,0.551131362113503,30.6666666666667,1.17,1079.2,4.66666666666667,2,0.752,0,-2.1028703967
Se-Br-Y,1.535,6.23387630667831,2.24333333333333,0.530881557605336,35.5555555555556,1.22,1533.2,4.33333333333333,2,0.752,0,-2.14750265
Se-Cl-Al,1.245,8.44709001954269,2.44,0.451531264011087,8.22222222222222,1.61,761.87,3.33333333333333,1.55555555555556,1.09733333333333,0,-1.2305312233
Se-Cl-Bi,0.835,5.06948327541964,2.57666666666667,0.277400390009806,2.88888888888889,2.02,372.8,4.33333333333333,0.666666666666667,1.09733333333333,0,-0.6572191767
Se-Cl-Ce,1.735,4.7801845134566,2.27666666666667,0.646686671641399,34,1.12,899.4,4.33333333333333,2,1.09733333333333,0,-2.20772224
Se-Cl-Co,0.975,4.89270050164649,2.53,0.336084236664527,14.8888888888889,1.88,1596.4,3.66666666666667,2,1.09733333333333,0,-0.65139671
Se-Cl-Cr,1.195,4.92907879274893,2.45666666666667,0.430217175269077,18.8888888888889,1.66,2008.4,3.66666666666667,2,1.09733333333333,0,-1.05744009
Se-Cl-Fe,1.025,5.56556246798793,2.51333333333333,0.357394966944066,16.2222222222222,1.83,1639.4,3.66666666666667,2,1.09733333333333,0,-0.5642048467
Se-Cl-Ga,1.045,6.07064639783745,2.50666666666667,0.365948438141932,7.77777777777778,1.81,322.4,3.66666666666667,1.55555555555556,1.09733333333333,0,-0.78111835
Se-Cl-Gd,1.655,5.35978353621998,2.30333333333333,0.617260240551931,28.6666666666667,1.2,1414.4,4.33333333333333,2,1.09733333333333,0,-2.23591470333333
Se-Cl-In,1.075,5.55136454287301,2.49666666666667,0.378798640994549,7.33333333333333,1.78,322.4,4,1.55555555555556,1.09733333333333,0,-0.9107964933
Se-Cl-Ir,0.655,4.7021266971228,2.63666666666667,0.205784147383453,14,2.2,2567.4,4.33333333333333,2,1.09733333333333,0,-0.4731393467
Se-Cl-La,1.755,5.87388631372163,2.27,0.653855859626721,34.8888888888889,1.1,1021.4,4.33333333333333,2,1.09733333333333,0,-2.3388714567
Se-Cl-Lu,1.585,5.42018054708272,2.32666666666667,0.590584603914435,22.4444444444444,1.27,1764.4,4.33333333333333,2,1.09733333333333,0,-2.1875490867
Se-Cl-Nd,1.715,4.94706829086363,2.28333333333333,0.639441117518025,32.2222222222222,1.14,1122.4,4.33333333333333,2,1.09733333333333,0,-2.2306464733
Se-Cl-Rh,0.575,5.28231915261254,2.66333333333333,0.176012566668297,14.4444444444444,2.28,2065.4,4,2,1.09733333333333,0,-0.74444122
Se-Cl-Ru,0.655,5.20251357768964,2.63666666666667,0.205784147383453,15.7777777777778,2.2,2435.4,4,2,1.09733333333333,0,-0.43345001
Se-Cl-Sc,1.495,6.86641948817517,2.35666666666667,0.555141933777059,35.7777777777778,1.36,1642.4,3.66666666666667,2,1.09733333333333,0,-2.0872184067
Se-Cl-Sm,1.685,4.91095701594372,2.29333333333333,0.628432598279113,30.4444444444444,1.17,1173.4,4.33333333333333,2,1.09733333333333,0,-2.2250468767
Se-Cl-Y,1.635,6.47203767237931,2.31,0.609723571536479,35.3333333333333,1.22,1627.4,4,2,1.09733333333333,0,-2.2706557533
Se-CN-Al,0.715,8.79224523444248,2.4375,0.400239577896362,5.25,1.61,3759.95,2.75,1,2.933,0.664680374315355,0.0753594725
Se-CN-Bi,0.51,5.27662663310971,2.54,0.229025515499885,4,2.02,3759.95,3.5,0.5,2.933,0.37476659402887,0.4029311775
Se-CN-Ce,0.96,4.9755068799977,2.315,0.602118079548795,25.375,1.12,3759.95,3.5,1.25,2.933,1.01116269709676,-0.8100303475
Se-CN-Co,0.58,5.09262036626012,2.505,0.285662686264043,9.25,1.88,3759.95,3,1.25,2.933,0.473761543394987,0.4220107875
Se-CN-Cr,0.69,5.13048510498584,2.45,0.378798640994549,12.625,1.66,3759.95,3,1.25,2.933,0.629325035256027,0.18681913
Se-CN-Fe,0.605,5.79297603943471,2.4925,0.306514536143557,10.375,1.83,3759.95,3,1.25,2.933,0.509116882454314,0.4658346125
Se-CN-Ga,0.615,6.31869812419275,2.4875,0.314923658853183,5,1.81,3759.95,3,1,2.933,0.523259018078045,0.4066279175
Se-CN-Gd,0.92,5.57878880714529,2.335,0.571043601320927,20.875,1.2,3759.95,3.5,1.25,2.933,0.954594154601839,-0.705256629999997
Se-CN-In,0.63,5.7781979751378,2.48,0.327598737602997,4.75,1.78,3759.95,3.25,1,2.933,0.544472221513641,0.3048622075
Se-CN-Ir,0.42,4.89425955552454,2.585,0.161717396775766,8.5,2.2,3759.95,3.5,1.25,2.933,0.247487373415291,0.49022849
Se-CN-La,0.97,6.11389825726895,2.31,0.609723571536479,26.125,1.1,3759.95,3.5,1.25,2.933,1.02530483272049,-0.7932208925
Se-CN-Lu,0.885,5.64165369075656,2.3525,0.543069966787304,15.625,1.27,3759.95,3.5,1.25,2.933,0.905096679918781,-0.6598972775
Se-CN-Nd,0.95,5.14920966914972,2.32,0.59444549493668,23.875,1.14,3759.95,3.5,1.25,2.933,0.997020561473032,-0.70639318
Se-CN-Rh,0.38,5.49815916355965,2.605,0.134458537778234,8.875,2.28,3759.95,3.25,1.25,2.933,0.190918830920368,0.2987405775
Se-CN-Ru,0.42,5.41509266560893,2.585,0.161717396775766,10,2.2,3759.95,3.25,1.25,2.933,0.247487373415291,0.5086726125
Se-CN-Sc,0.84,7.14698717344314,2.375,0.506187801966654,26.875,1.36,3759.95,3,1.25,2.933,0.841457069611991,-0.581523105
Se-CN-Sm,0.935,5.11162285711271,2.3275,0.582814787035019,22.375,1.17,3759.95,3.5,1.25,2.933,0.975807358037435,-0.6651347075
Se-CN-Y,0.91,6.73649058438587,2.34,0.563121432466778,26.5,1.22,3759.95,3.25,1.25,2.933,0.940452018978108,-0.719414115
Se-F-Al,1.655,9.64659065043193,2.71333333333333,0.754442710372489,8,1.61,879.97,3,1.55555555555556,0.923,0,-1.6768187367
Se-F-Bi,1.245,5.78935821141298,2.85,0.617260240551931,2.44444444444444,2.02,490.9,4,0.666666666666667,0.923,0,-1.19679494
Se-F-Ce,2.145,5.45897855097635,2.55,0.870606871356709,33.7777777777778,1.12,1017.5,4,2,0.923,0,-2.7555664867
Se-F-Co,1.385,5.58747199394731,2.80333333333333,0.667960054655339,14.6666666666667,1.88,1714.5,3.33333333333333,2,0.923,0,-1.0683392567
Se-F-Cr,1.605,5.62901606202468,2.73,0.739616569076971,18.6666666666667,1.66,2126.5,3.33333333333333,2,0.923,0,-1.5530183867