Compound,mean EN difference,geom-mean_eta_both,MagpieData mean Electronegativity,max ionic char,MagpieData avg_dev MendeleevNumber,MagpieData minimum Electronegativity,MagpieData range MeltingT,MagpieData mean Row,MagpieData avg_dev NpValence,MagpieData mean GSbandgap,std_dev EN difference,Formation_energy
NCO-Br-Zn,1.04666666666667,5.70802194594366,2.728,0.551131362113503,7.2,1.65,3768.2,2.8,1.44,2.478,0.636396103067893,-0.672828236
NCO-Cl-Ba,1.49333333333333,6.27139123620859,2.616,0.803211356141508,24.32,0.89,3768.2,3,1.44,2.6852,1.17379725676967,-1.582544174
NCO-Cl-Be,1.15333333333333,10.9321052143566,2.752,0.582814787035019,7.52,1.57,3768.2,2.2,1.44,2.6852,0.692964645562816,-0.874063706
NCO-Cl-Ca,1.43833333333333,7.24073489482714,2.638,0.774266459580783,24.96,1,3768.2,2.6,1.44,2.6852,1.09601551083915,-1.592743918
NCO-Cl-Cd,1.09333333333333,5.83319255896103,2.776,0.534956811865944,6.8,1.69,3768.2,2.8,1.44,2.6852,0.608111831820431,-0.763898366
NCO-Cl-Co,0.998333333333334,5.4062798454699,2.814,0.455779073674793,9.68,1.88,3768.2,2.6,1.44,2.6852,0.473761543394987,-0.625285604
NCO-Cl-Cu,0.988333333333334,5.42816785682067,2.818,0.447277935696606,8.24,1.9,3768.2,2.6,1.44,2.6852,0.459619407771256,-0.380916254
NCO-Cl-Fe,1.02333333333333,5.20077651125744,2.804,0.476922164006862,10.4,1.83,3768.2,2.6,1.44,2.6852,0.509116882454314,-0.654752974
NCO-Cl-Mg,1.28333333333333,8.5556897026123,2.7,0.678328679969553,7.28,1.31,3768.2,2.4,1.44,2.6852,0.876812408671319,-1.316788772
NCO-Cl-Mn,1.16333333333333,5.63795434086016,2.748,0.590584603914435,11.12,1.55,3768.2,2.6,1.44,2.6852,0.707106781186547,-0.971080904
NCO-Cl-Ni,0.983333333333334,5.47142201397767,2.82,0.443019472906049,8.96,1.91,3768.2,2.6,1.44,2.6852,0.45254833995939,-0.69551722
NCO-Cl-Pb,0.773333333333333,5.47142201397767,2.904,0.265103054644222,5.04,2.33,3768.2,3,1.04,2.6852,0.15556349186104,-0.69381491
NCO-Cl-Pd,0.838333333333333,5.07921826481238,2.878,0.319140970908075,8.72,2.2,3768.2,2.8,1.44,2.6852,0.247487373415291,-0.348291688
NCO-Cl-Pt,0.798333333333334,5.36196408305786,2.894,0.285662686264043,8.48,2.28,3768.2,3,1.44,2.6852,0.190918830920368,-0.055146464
NCO-Cl-Sr,1.46333333333333,6.79761306073404,2.628,0.787757332306276,24.64,0.95,3768.2,2.8,1.44,2.6852,1.13137084989848,-1.601822572
NCO-Cl-Zn,1.11333333333333,5.92609337296908,2.768,0.551131362113503,7.04,1.65,3768.2,2.6,1.44,2.6852,0.636396103067893,-0.782306268
NCO-CN-Ba,1.17666666666667,6.52764556578793,2.585,0.803211356141508,20,0.89,3768.2,2.66666666666667,1,3.64433333333333,1.17379725676967,-0.69194692
NCO-CN-Be,0.95,11.37880024375,2.69833333333333,0.582814787035019,5,1.57,3768.2,2,1,3.64433333333333,0.692964645562816,-0.0721402783
NCO-CN-Ca,1.14,7.53659742297288,2.60333333333333,0.774266459580783,20.5555555555556,1,3768.2,2.33333333333333,1,3.64433333333333,1.09601551083915,-0.6790739167
NCO-CN-Cd,0.91,6.07154172140421,2.71833333333333,0.534956811865944,4.5,1.69,3768.2,2.5,1,3.64433333333333,0.608111831820431,-0.015320845
NCO-CN-Co,0.846666666666667,5.62718499476446,2.75,0.455779073674793,6.5,1.88,3768.2,2.33333333333333,1,3.64433333333333,0.473761543394987,0.12859054
NCO-CN-Cu,0.84,5.64996736869973,2.75333333333333,0.447277935696606,5.5,1.9,3768.2,2.33333333333333,1,3.64433333333333,0.459619407771256,0.256371125
NCO-CN-Fe,0.863333333333333,5.41328462117884,2.74166666666667,0.476922164006862,7.22222222222222,1.83,3768.2,2.33333333333333,1,3.64433333333333,0.509116882454314,0.05090818
NCO-CN-Mg,1.03666666666667,8.90528239205792,2.655,0.678328679969553,4.83333333333333,1.31,3768.2,2.16666666666667,1,3.64433333333333,0.876812408671319,-0.4433658317
NCO-CN-Mn,0.956666666666667,5.86832590522289,2.695,0.590584603914435,8.05555555555555,1.55,3768.2,2.33333333333333,1,3.64433333333333,0.707106781186547,-0.1053682317
NCO-CN-Ni,0.836666666666667,5.69498892715995,2.755,0.443019472906049,6,1.91,3768.2,2.33333333333333,1,3.64433333333333,0.45254833995939,0.043392365
NCO-CN-Pb,0.696666666666667,5.69498892715995,2.825,0.265103054644222,2.66666666666667,2.33,3768.2,2.66666666666667,0.666666666666667,3.64433333333333,0.15556349186104,0.037951125
NCO-CN-Pd,0.74,5.28675940237081,2.80333333333333,0.319140970908075,5.83333333333333,2.2,3768.2,2.5,1,3.64433333333333,0.247487373415291,0.2715085533
NCO-CN-Pt,0.713333333333333,5.58105845296408,2.81666666666667,0.285662686264043,5.66666666666667,2.28,3768.2,2.66666666666667,1,3.64433333333333,0.190918830920368,0.3714391783
NCO-CN-Sr,1.15666666666667,7.07536925740713,2.595,0.787757332306276,20.2777777777778,0.95,3768.2,2.5,1,3.64433333333333,1.13137084989848,-0.6945512233
NCO-CN-Zn,0.923333333333333,6.16823854094186,2.71166666666667,0.551131362113503,4.66666666666667,1.65,3768.2,2.33333333333333,1,3.64433333333333,0.636396103067893,-0.0224668567
NCO-F-Ba,1.76666666666667,7.16193907303545,2.78,0.908097311920564,24.24,0.89,3769.5,2.8,1.44,2.5806,1.17379725676967,-1.930994536
NCO-F-Be,1.42666666666667,12.48448207683,2.916,0.76590423612167,7.36,1.57,3769.5,2,1.44,2.5806,0.692964645562816,-1.374255542
NCO-F-Ca,1.71166666666667,8.26893112031464,2.802,0.891401751542897,24.88,1,3769.5,2.4,1.44,2.5806,1.09601551083915,-2.013436108
NCO-F-Cd,1.36666666666667,6.66151546523817,2.94,0.730456367481674,6.64,1.69,3769.5,2.6,1.44,2.5806,0.608111831820431,-1.06788724
NCO-F-Co,1.27166666666667,6.17398044655289,2.978,0.667960054655339,9.52,1.88,3769.5,2.4,1.44,2.5806,0.473761543394987,-0.98584761
NCO-F-Cu,1.26166666666667,6.19897659139854,2.982,0.660947392745558,8.08,1.9,3769.5,2.4,1.44,2.5806,0.459619407771256,-0.698860182
NCO-F-Fe,1.29666666666667,5.93929530198119,2.968,0.685139312535294,10.24,1.83,3769.5,2.4,1.44,2.5806,0.509116882454314,-0.996050852
NCO-F-Mg,1.55666666666667,9.77061166653518,2.864,0.831736655486387,7.12,1.31,3769.5,2.2,1.44,2.5806,0.876812408671319,-1.786466238
NCO-F-Mn,1.43666666666667,6.43855310009448,2.912,0.77150135530994,10.96,1.55,3769.5,2.4,1.44,2.5806,0.707106781186547,-1.255502652
NCO-F-Ni,1.25666666666667,6.24837290978248,2.984,0.657411410756611,8.8,1.91,3769.5,2.4,1.44,2.5806,0.45254833995939,-1.031568988
NCO-F-Pb,1.04666666666667,6.24837290978248,3.068,0.493699544326619,4.8,2.33,3769.5,2.8,1.04,2.5806,0.15556349186104,-1.014372208
NCO-F-Pd,1.11166666666667,5.80047558525899,3.042,0.547107278760105,8.56,2.2,3769.5,2.6,1.44,2.5806,0.247487373415291,-0.3046861
NCO-F-Pt,1.07166666666667,6.12337177322731,3.058,0.514463104845921,8.32,2.28,3769.5,2.8,1.44,2.5806,0.190918830920368,-0.265329512
NCO-F-Sr,1.73666666666667,7.76288525932876,2.792,0.89926127549485,24.56,0.95,3769.5,2.6,1.44,2.5806,1.13137084989848,-1.992489008
NCO-F-Zn,1.38666666666667,6.76760834713645,2.932,0.742626000251458,6.88,1.65,3769.5,2.4,1.44,2.5806,0.636396103067893,-1.13473273
NCO-I-Ba,1.32666666666667,5.79071045637978,2.516,0.803211356141508,24.48,0.89,3768.2,3.4,1.44,2.399,1.17379725676967,-1.32379503
NCO-I-Be,0.986666666666667,10.0941965810588,2.652,0.582814787035019,7.84,1.57,3768.2,2.6,1.44,2.399,0.692964645562816,-0.380533172
NCO-I-Ca,1.27166666666667,6.68575722485111,2.538,0.774266459580783,25.12,1,3768.2,3,1.44,2.399,1.09601551083915,-1.279391032
NCO-I-Cd,0.926666666666667,5.38609821537354,2.676,0.534956811865944,7.28,1.69,3768.2,3.2,1.44,2.399,0.608111831820431,-0.50358247
NCO-I-Co,0.831666666666667,4.99190690743833,2.714,0.455779073674793,10,1.88,3768.2,3,1.44,2.399,0.473761543394987,-0.27818054
NCO-I-Cu,0.821666666666667,5.01211727726287,2.718,0.447277935696606,8.56,1.9,3768.2,3,1.44,2.399,0.459619407771256,-0.142374332
NCO-I-Fe,0.856666666666667,4.8021547039122,2.704,0.476922164006862,10.72,1.83,3768.2,3,1.44,2.399,0.509116882454314,-0.234269762
NCO-I-Mg,1.11666666666667,7.89992522495053,2.6,0.678328679969553,7.6,1.31,3768.2,2.8,1.44,2.399,0.876812408671319,-0.890047612
NCO-I-Mn,0.996666666666667,5.20582434176888,2.648,0.590584603914435,11.44,1.55,3768.2,3,1.44,2.399,0.707106781186547,-0.65648513
NCO-I-Ni,0.816666666666667,5.05205615058413,2.72,0.443019472906049,9.28,1.91,3768.2,3,1.44,2.399,0.45254833995939,-0.349076332
NCO-I-Pb,0.606666666666667,5.05205615058413,2.804,0.265103054644222,5.52,2.33,3768.2,3.4,1.04,2.399,0.15556349186104,-0.506716306
NCO-I-Pd,0.671666666666667,4.68991348306721,2.778,0.319140970908075,9.04,2.2,3768.2,3.2,1.44,2.399,0.247487373415291,-0.14945116
NCO-I-Pt,0.631666666666667,4.95098779728933,2.794,0.285662686264043,8.8,2.28,3768.2,3.4,1.44,2.399,0.190918830920368,0.03753309
NCO-I-Sr,1.29666666666667,6.27659917020478,2.528,0.787757332306276,24.8,0.95,3768.2,3.2,1.44,2.399,1.13137084989848,-1.319003784
NCO-I-Zn,0.946666666666667,5.47187849837942,2.668,0.551131362113503,7.44,1.65,3768.2,3,1.44,2.399,0.636396103067893,-0.432270752
NCO-NC-Ba,1.17666666666667,6.56844440975811,2.585,0.803211356141508,20,0.89,3768.2,2.66666666666667,1,3.64433333333333,1.17379725676967,-0.7377415933
NCO-NC-Be,0.95,11.4499195916119,2.69833333333333,0.582814787035019,5,1.57,3768.2,2,1,3.64433333333333,0.692964645562816,-0.16802272
NCO-NC-Ca,1.14,7.58370237976427,2.60333333333333,0.774266459580783,20.5555555555556,1,3768.2,2.33333333333333,1,3.64433333333333,1.09601551083915,-0.7519819033
NCO-NC-Cd,0.91,6.109489842339,2.71833333333333,0.534956811865944,4.5,1.69,3768.2,2.5,1,3.64433333333333,0.608111831820431,-0.03700011
NCO-NC-Co,0.846666666666667,5.66235581405587,2.75,0.455779073674793,6.5,1.88,3768.2,2.33333333333333,1,3.64433333333333,0.473761543394987,0.0614483383
NCO-NC-Cu,0.84,5.68528058152494,2.75333333333333,0.447277935696606,5.5,1.9,3768.2,2.33333333333333,1,3.64433333333333,0.459619407771256,0.2713256317
NCO-NC-Fe,0.863333333333333,5.4471185284276,2.74166666666667,0.476922164006862,7.22222222222222,1.83,3768.2,2.33333333333333,1,3.64433333333333,0.509116882454314,0.0303636467
NCO-NC-Mg,1.03666666666667,8.96094185199064,2.655,0.678328679969553,4.83333333333333,1.31,3768.2,2.16666666666667,1,3.64433333333333,0.876812408671319,-0.536119945
NCO-NC-Mn,0.956666666666667,5.90500389433249,2.695,0.590584603914435,8.05555555555555,1.55,3768.2,2.33333333333333,1,3.64433333333333,0.707106781186547,-0.18580774
NCO-NC-Ni,0.836666666666667,5.73058353203079,2.755,0.443019472906049,6,1.91,3768.2,2.33333333333333,1,3.64433333333333,0.45254833995939,0.0064857783
NCO-NC-Pb,0.696666666666667,5.73058353203079,2.825,0.265103054644222,2.66666666666667,2.33,3768.2,2.66666666666667,0.666666666666667,3.64433333333333,0.15556349186104,0.0296218617
NCO-NC-Pd,0.74,5.31980250647187,2.80333333333333,0.319140970908075,5.83333333333333,2.2,3768.2,2.5,1,3.64433333333333,0.247487373415291,0.3208476767
NCO-NC-Pt,0.713333333333333,5.6159409738847,2.81666666666667,0.285662686264043,5.66666666666667,2.28,3768.2,2.66666666666667,1,3.64433333333333,0.190918830920368,0.5405849817
NCO-NC-Sr,1.15666666666667,7.11959146332426,2.595,0.787757332306276,20.2777777777778,0.95,3768.2,2.5,1,3.64433333333333,1.13137084989848,-0.75647616
NCO-NC-Zn,0.923333333333333,6.20679103268891,2.71166666666667,0.551131362113503,4.66666666666667,1.65,3768.2,2.33333333333333,1,3.64433333333333,0.636396103067893,-0.0600275
NCS-Br-Ba,1.14,5.99109790977481,2.404,0.685139312535294,24.48,0.89,3759.95,3.4,1.44,2.9184,1.17379725676967,-1.0650903934
NCS-Br-Be,0.8,10.443506110897,2.54,0.417382851233086,7.84,1.57,3759.95,2.6,1.44,2.9184,0.692964645562816,-0.1751742214
NCS-Br-Ca,1.085,6.91711775900271,2.426,0.646686671641399,25.12,1,3759.95,3,1.44,2.9184,1.09601551083915,-1.0431933894
NCS-Br-Cd,0.74,5.57248406789447,2.564,0.365948438141932,7.28,1.69,3759.95,3.2,1.44,2.9184,0.608111831820431,-0.2253399194
NCS-Br-Co,0.645,5.16465177532661,2.602,0.285662686264043,10,1.88,3759.95,3,1.44,2.9184,0.473761543394987,-0.0359493534
NCS-Br-Cu,0.635,5.18556152471292,2.606,0.277400390009806,8.56,1.9,3759.95,3,1.44,2.9184,0.459619407771256,0.1504563466
NCS-Br-Fe,0.67,4.96833319948276,2.592,0.306514536143557,10.72,1.83,3759.95,3,1.44,2.9184,0.509116882454314,-0.0629921454
NCS-Br-Mg,0.93,8.17330202556311,2.488,0.526794252062466,7.6,1.31,3759.95,2.8,1.44,2.9184,0.876812408671319,-0.6987799014
NCS-Br-Mn,0.81,5.38597181944489,2.536,0.425942090430698,11.44,1.55,3759.95,3,1.44,2.9184,0.707106781186547,-0.3976944154
NCS-Br-Ni,0.63,5.22688248218026,2.608,0.273287979294598,9.28,1.91,3759.95,3,1.44,2.9184,0.45254833995939,-0.0970665834
NCS-Br-Pb,0.42,5.22688248218026,2.692,0.118407193312251,5.52,2.33,3759.95,3.4,1.04,2.9184,0.15556349186104,-0.2047393994
NCS-Br-Pd,0.485,4.85220787277883,2.666,0.161717396775766,9.04,2.2,3759.95,3.2,1.44,2.9184,0.247487373415291,0.1577263686
NCS-Br-Pt,0.445,5.12231665994998,2.682,0.134458537778234,8.8,2.28,3759.95,3.4,1.44,2.9184,0.190918830920368,0.3922249746
NCS-Br-Sr,1.11,6.49380079566561,2.416,0.664463655809218,24.8,0.95,3759.95,3.2,1.44,2.9184,1.13137084989848,-1.0675913514
NCS-Br-Zn,0.76,5.66123277637984,2.556,0.383085599679248,7.44,1.65,3759.95,3,1.44,2.9184,0.636396103067893,-0.1857353354
NCS-Cl-Ba,1.20666666666667,6.21998407787407,2.444,0.724240177376075,24.4,0.89,3759.95,3.2,1.44,3.1256,1.17379725676967,-1.1467235314
NCS-Cl-Be,0.866666666666667,10.842493764119,2.58,0.468485606147228,7.68,1.57,3759.95,2.4,1.44,3.1256,0.692964645562816,-0.3100569194
NCS-Cl-Ca,1.15166666666667,7.18138193929033,2.466,0.688513724152593,25.04,1,3759.95,2.8,1.44,3.1256,1.09601551083915,-1.1412798614
NCS-Cl-Cd,0.806666666666667,5.78537735461803,2.604,0.417382851233086,7.04,1.69,3759.95,3,1.44,3.1256,0.608111831820431,-0.2969534014
NCS-Cl-Co,0.711666666666667,5.36196408305786,2.642,0.336084236664527,9.84,1.88,3759.95,2.8,1.44,3.1256,0.473761543394987,-0.1334401814
NCS-Cl-Cu,0.701666666666667,5.38367267640985,2.646,0.327598737602997,8.4,1.9,3759.95,2.8,1.44,3.1256,0.459619407771256,0.0734002326
NCS-Cl-Fe,0.736666666666667,5.15814527816948,2.632,0.357394966944066,10.56,1.83,3759.95,2.8,1.44,3.1256,0.509116882454314,-0.1610687374
NCS-Cl-Mg,0.996666666666667,8.48555794418144,2.528,0.574982527866331,7.44,1.31,3759.95,2.6,1.44,3.1256,0.876812408671319,-0.8218565414
NCS-Cl-Mn,0.876666666666667,5.59173952176069,2.576,0.476922164006862,11.28,1.55,3759.95,2.8,1.44,3.1256,0.707106781186547,-0.4816325754
NCS-Cl-Ni,0.696666666666667,5.42657227534814,2.648,0.323366153838271,9.12,1.91,3759.95,2.8,1.44,3.1256,0.45254833995939,-0.1963664934
NCS-Cl-Pb,0.486666666666667,5.42657227534814,2.732,0.158210250834464,5.28,2.33,3759.95,3.2,1.04,3.1256,0.15556349186104,-0.2537580994
NCS-Cl-Pd,0.551666666666667,5.03758345560972,2.706,0.205784147383453,8.88,2.2,3759.95,3,1.44,3.1256,0.247487373415291,0.1011578806
NCS-Cl-Pt,0.511666666666667,5.31801158093835,2.722,0.176012566668297,8.64,2.28,3759.95,3.2,1.44,3.1256,0.190918830920368,0.3495028186
NCS-Cl-Sr,1.17666666666667,6.74189241474845,2.456,0.705072288961961,24.72,0.95,3759.95,3,1.44,3.1256,1.13137084989848,-1.1581025334
NCS-Cl-Zn,0.826666666666667,5.87751665229337,2.596,0.434488699259705,7.2,1.65,3759.95,2.8,1.44,3.1256,0.636396103067893,-0.2817198874
NCS-CN-Ba,0.89,6.47413786765316,2.44166666666667,0.685139312535294,20.0555555555556,0.89,3759.95,2.83333333333333,1,4.01133333333333,1.17379725676967,-0.3327216295
NCS-CN-Be,0.663333333333333,11.2855271941578,2.555,0.417382851233086,5.16666666666667,1.57,3759.95,2.16666666666667,1,4.01133333333333,0.692964645562816,0.4109166555
NCS-CN-Ca,0.853333333333334,7.47481925566777,2.46,0.646686671641399,20.6111111111111,1,3759.95,2.5,1,4.01133333333333,1.09601551083915,-0.3045367828
NCS-CN-Cd,0.623333333333334,6.02177274752728,2.575,0.365948438141932,4.66666666666667,1.69,3759.95,2.66666666666667,1,4.01133333333333,0.608111831820431,0.3754183488
NCS-CN-Co,0.56,5.58105845296408,2.60666666666667,0.285662686264043,6.66666666666667,1.88,3759.95,2.5,1,4.01133333333333,0.473761543394987,0.5613906538
NCS-CN-Cu,0.553333333333334,5.60365407772999,2.61,0.277400390009806,5.66666666666667,1.9,3759.95,2.5,1,4.01133333333333,0.459619407771256,0.6513781972
NCS-CN-Fe,0.576666666666667,5.36891143998994,2.59833333333333,0.306514536143557,7.27777777777778,1.83,3759.95,2.5,1,4.01133333333333,0.509116882454314,0.6042574122
NCS-CN-Mg,0.75,8.83228499089133,2.51166666666667,0.526794252062466,5,1.31,3759.95,2.33333333333333,1,4.01133333333333,0.876812408671319,-0.0317768995
NCS-CN-Mn,0.67,5.82022270967887,2.55166666666667,0.425942090430698,8.11111111111111,1.55,3759.95,2.5,1,4.01133333333333,0.707106781186547,0.2725688355
NCS-CN-Ni,0.55,5.64830659042396,2.61166666666667,0.273287979294598,6.16666666666667,1.91,3759.95,2.5,1,4.01133333333333,0.45254833995939,0.4691086255
NCS-CN-Pb,0.41,5.64830659042396,2.68166666666667,0.118407193312251,2.83333333333333,2.33,3759.95,2.83333333333333,0.666666666666667,4.01133333333333,0.15556349186104,0.4042147455
NCS-CN-Pd,0.453333333333333,5.24342335978666,2.66,0.161717396775766,6,2.2,3759.95,2.66666666666667,1,4.01133333333333,0.247487373415291,0.6528201405
NCS-CN-Pt,0.426666666666667,5.53531001457784,2.67333333333333,0.134458537778234,5.83333333333333,2.28,3759.95,2.83333333333333,1,4.01133333333333,0.190918830920368,0.7640500972
NCS-CN-Sr,0.87,7.01737181888173,2.45166666666667,0.664463655809218,20.3333333333333,0.95,3759.95,2.66666666666667,1,4.01133333333333,1.13137084989848,-0.3278912428
NCS-CN-Zn,0.636666666666667,6.1176769345333,2.56833333333333,0.383085599679248,4.83333333333333,1.65,3759.95,2.5,1,4.01133333333333,0.636396103067893,0.4002240622
NCS-F-Ba,1.48,7.10323201394081,2.608,0.908097311920564,24.32,0.89,3769.5,3,1.44,3.021,1.17379725676967,-1.4763638794
NCS-F-Be,1.14,12.3821456537502,2.744,0.76590423612167,7.52,1.57,3769.5,2.2,1.44,3.021,0.692964645562816,-0.6886525174
NCS-F-Ca,1.425,8.20114994778868,2.63,0.891401751542897,24.96,1,3769.5,2.6,1.44,3.021,1.09601551083915,-1.5426858194
NCS-F-Cd,1.08,6.60691042349047,2.768,0.730456367481674,6.8,1.69,3769.5,2.8,1.44,3.021,0.608111831820431,-0.5845761774
NCS-F-Co,0.985,6.12337177322731,2.806,0.667960054655339,9.68,1.88,3769.5,2.6,1.44,3.021,0.473761543394987,-0.4458331514
NCS-F-Cu,0.975,6.14816302242423,2.81,0.660947392745558,8.24,1.9,3769.5,2.6,1.44,3.021,0.459619407771256,-0.2175180054
NCS-F-Fe,1.01,5.89061036390531,2.796,0.685139312535294,10.4,1.83,3769.5,2.6,1.44,3.021,0.509116882454314,-0.4665769994
NCS-F-Mg,1.27,9.6905210834335,2.692,0.831736655486387,7.28,1.31,3769.5,2.4,1.44,3.021,0.876812408671319,-1.2405251194
NCS-F-Mn,1.15,6.38577570091856,2.74,0.77150135530994,11.12,1.55,3769.5,2.6,1.44,3.021,0.707106781186547,-0.7738168934
NCS-F-Ni,0.97,6.19715443474113,2.812,0.657411410756611,8.96,1.91,3769.5,2.6,1.44,3.021,0.45254833995939,-0.4963460614
NCS-F-Pb,0.76,6.19715443474113,2.896,0.493699544326619,5.04,2.33,3769.5,3,1.04,3.021,0.15556349186104,-0.5675015914
NCS-F-Pd,0.825,5.75292856489367,2.87,0.547107278760105,8.72,2.2,3769.5,2.8,1.44,3.021,0.247487373415291,-0.1170836474
NCS-F-Pt,0.785,6.07317794375132,2.886,0.514463104845921,8.48,2.28,3769.5,3,1.44,3.021,0.190918830920368,0.1723759106
NCS-F-Sr,1.45,7.69925219026508,2.62,0.89926127549485,24.64,0.95,3769.5,2.8,1.44,3.021,1.13137084989848,-1.5363193354
NCS-F-Zn,1.1,6.71213365248838,2.76,0.742626000251458,7.04,1.65,3769.5,2.6,1.44,3.021,0.636396103067893,-0.5911947254
NCS-I-Ba,1.04,5.74324348165465,2.344,0.685139312535294,24.56,0.89,3759.95,3.6,1.44,2.8394,1.17379725676967,-0.8908382514
NCS-I-Be,0.7,10.0114535432929,2.48,0.417382851233086,8,1.57,3759.95,2.8,1.44,2.8394,0.692964645562816,0.1044176006
NCS-I-Ca,0.985,6.63095347121831,2.366,0.646686671641399,25.2,1,3759.95,3.2,1.44,2.8394,1.09601551083915,-0.8355166074
NCS-I-Cd,0.64,5.34194788359957,2.504,0.365948438141932,7.52,1.69,3759.95,3.4,1.44,2.8394,0.608111831820431,-0.0426171494
NCS-I-Co,0.545,4.95098779728933,2.542,0.285662686264043,10.16,1.88,3759.95,3.2,1.44,2.8394,0.473761543394987,0.2363787246
NCS-I-Cu,0.535,4.97103250089367,2.546,0.277400390009806,8.72,1.9,3759.95,3.2,1.44,2.8394,0.459619407771256,0.3068512666
NCS-I-Fe,0.57,4.76279100965158,2.532,0.306514536143557,10.88,1.83,3759.95,3.2,1.44,2.8394,0.509116882454314,0.2939240326
NCS-I-Mg,0.83,7.83516882695622,2.428,0.526794252062466,7.84,1.31,3759.95,3,1.44,2.8394,0.876812408671319,-0.4439796014