Compound,mean EN difference,geom-mean_eta_both,MagpieData mean Electronegativity,max ionic char,MagpieData avg_dev MendeleevNumber,MagpieData minimum Electronegativity,MagpieData range MeltingT,MagpieData mean Row,MagpieData avg_dev NpValence,MagpieData mean GSbandgap,std_dev EN difference,Formation_energy
OCN-OCN-Sr,1.22333333333333,7.21478443576608,2.71571428571429,0.787757332306276,18.1224489795918,0.95,3768.2,2.42857142857143,1.06122448979592,3.12371428571429,1.13137084989848,-0.8038450243
OCN-OCN-Zn,0.99,6.28977934610135,2.81571428571429,0.551131362113503,4.97959183673469,1.65,3768.2,2.28571428571429,1.06122448979592,3.12371428571429,0.636396103067893,-0.13895155
SCN-SCN-Ba,0.813333333333333,5.6962938871216,2.46142857142857,0.685139312535294,17.9591836734694,0.89,3759.95,2.85714285714286,1.06122448979592,3.75285714285714,1.17379725676967,-0.2087284463
SCN-SCN-Be,0.586666666666667,9.92961238749902,2.55857142857143,0.417382851233086,5.55102040816327,1.57,3759.95,2.28571428571429,1.06122448979592,3.75285714285714,0.692964645562816,0.3302000366
SCN-SCN-Ca,0.776666666666667,6.5767470671479,2.47714285714286,0.646686671641399,18.4489795918367,1,3759.95,2.57142857142857,1.06122448979592,3.75285714285714,1.09601551083915,-0.1668709549
SCN-SCN-Cd,0.546666666666667,5.29827878129651,2.57571428571429,0.365948438141932,5.06122448979592,1.69,3759.95,2.71428571428571,1.06122448979592,3.75285714285714,0.608111831820431,0.328792558
SCN-SCN-Co,0.483333333333334,4.91051469696486,2.60285714285714,0.285662686264043,7.02040816326531,1.88,3759.95,2.57142857142857,1.06122448979592,3.75285714285714,0.473761543394987,0.3770751351
SCN-SCN-Cu,0.476666666666667,4.93039554007647,2.60571428571429,0.277400390009806,6.04081632653061,1.9,3759.95,2.57142857142857,1.06122448979592,3.75285714285714,0.459619407771256,0.4943992823
SCN-SCN-Fe,0.5,4.72385637150449,2.59571428571429,0.306514536143557,7.51020408163265,1.83,3759.95,2.57142857142857,1.06122448979592,3.75285714285714,0.509116882454314,0.3642613994
SCN-SCN-Mg,0.673333333333333,7.77111826028624,2.52142857142857,0.526794252062466,5.38775510204082,1.31,3759.95,2.42857142857143,1.06122448979592,3.75285714285714,0.876812408671319,0.0567097437
SCN-SCN-Mn,0.593333333333333,5.12094424316732,2.55571428571429,0.425942090430698,8,1.55,3759.95,2.57142857142857,1.06122448979592,3.75285714285714,0.707106781186547,0.3822917009
SCN-SCN-Ni,0.473333333333334,4.96968321672205,2.60714285714286,0.273287979294598,6.53061224489796,1.91,3759.95,2.57142857142857,1.06122448979592,3.75285714285714,0.45254833995939,0.3522798194
SCN-SCN-Pb,0.333333333333333,4.96968321672205,2.66714285714286,0.118407193312251,3.3469387755102,2.33,3759.95,2.85714285714286,0.73469387755102,3.75285714285714,0.15556349186104,0.3843934766
SCN-SCN-Pd,0.376666666666667,4.61344522506598,2.64857142857143,0.161717396775766,6.36734693877551,2.2,3759.95,2.71428571428571,1.06122448979592,3.75285714285714,0.247487373415291,0.4879232794
SCN-SCN-Pt,0.35,4.87026276608971,2.66,0.134458537778234,6.20408163265306,2.28,3759.95,2.85714285714286,1.06122448979592,3.75285714285714,0.190918830920368,0.5808478994
SCN-SCN-Sr,0.793333333333334,6.1742602664168,2.47,0.664463655809218,18.2040816326531,0.95,3759.95,2.71428571428571,1.06122448979592,3.75285714285714,1.13137084989848,-0.1791241163
SCN-SCN-Zn,0.56,5.38266043107899,2.57,0.383085599679248,5.22448979591837,1.65,3759.95,2.57142857142857,1.06122448979592,3.75285714285714,0.636396103067893,0.3393622037
SH-SH-Ba,0.816666666666666,5.99228638390036,2.09,0.510330693299954,25.92,0.89,985.99,2.8,1.92,4.022,0.926309883354377,-0.9843094468
SH-SH-Be,0.59,10.4455778241255,2.226,0.225102874709209,7.36,1.57,1545.99,2,1.92,4.022,0.445477272147525,-0.3194674708
SH-SH-Ca,0.78,6.91848993078221,2.112,0.464256619349415,26.56,1,1100.99,2.4,1.92,4.022,0.848528137423857,-1.0254335688
SH-SH-Cd,0.55,5.57358950019244,2.25,0.179650655852134,6.4,1.69,580.21,2.6,1.92,4.022,0.360624458405139,-0.3225091648
SH-SH-Co,0.486666666666667,5.16567630456898,2.288,0.115294095056517,10.24,1.88,1753.99,2.4,1.92,4.022,0.226274169979695,-0.2357365228
SH-SH-Cu,0.48,5.1865902018922,2.292,0.109168515365691,8.32,1.9,1343.76,2.4,1.92,4.022,0.212132034355964,-0.0451265188
SH-SH-Fe,0.503333333333333,4.96931878435279,2.278,0.131184943737157,11.2,1.83,1796.99,2.4,1.92,4.022,0.261629509039023,-0.2640652808
SH-SH-Mg,0.676666666666667,8.17492339081603,2.174,0.331838253983406,7.04,1.31,908.99,2.2,1.92,4.022,0.629325035256027,-0.7321047548
SH-SH-Mn,0.596666666666667,5.38704025268447,2.222,0.232966651944445,12.16,1.55,1504.99,2.4,1.92,4.022,0.459619407771256,-0.2485813868
SH-SH-Ni,0.476666666666667,5.22791935633604,2.294,0.106156879828782,9.28,1.91,1713.99,2.4,1.92,4.022,0.205060966544099,-0.2736292608
SH-SH-Pb,0.336666666666667,5.22791935633604,2.378,0.035456165723185,3.04,2.2,586.6,2.8,1.6,4.022,0.091923881554251,-0.2245467988
SH-SH-Pd,0.38,4.8531704214795,2.352,0.035456165723185,8.96,2.2,1814.04,2.6,1.92,4.022,0,-0.0484270068
SH-SH-Pt,0.353333333333333,5.12333279103395,2.368,0.035456165723185,8.64,2.2,2027.39,2.8,1.92,4.022,0.056568542494924,0.0651825712
SH-SH-Sr,0.796666666666667,6.49508899264359,2.102,0.485327755826721,26.24,0.95,1035.99,2.6,1.92,4.022,0.883883476483184,-1.0434618608
SH-SH-Zn,0.563333333333333,5.66235581405587,2.242,0.194445968175797,6.72,1.65,678.67,2.4,1.92,4.022,0.388908729652601,-0.3071891308
NH-NH-Ce,1.2,5.71464378708552,2.32,0.602118079548795,23.04,1.12,1056.99,2.4,1.44,5.716,0.763675323681471,-0.870372074
NH-NH-Ge,0.903333333333333,6.76603594737095,2.498,0.232966651944445,5.28,2.01,1197.39,2,1.28,5.7926,0.134350288425444,-0.18729779
NH-NH-Hf,1.14,7.13270634331576,2.356,0.530881557605336,13.44,1.3,2491.99,2.4,1.44,5.716,0.636396103067893,-1.031802776
NH-NH-Ir,0.84,6.18992466956555,2.536,0.161717396775766,8.64,2.2,2724.99,2.4,1.44,5.716,0,0.175297656
NH-NH-Mo,0.853333333333333,4.53571577962154,2.528,0.176012566668297,11.84,2.16,2881.99,2.2,1.44,5.716,0.028284271247462,-0.275563736
NH-NH-Os,0.84,4.45011572311943,2.536,0.161717396775766,9.6,2.2,3291.99,2.4,1.44,5.716,0,0.23910916
NH-NH-Pd,0.84,4.81246758847008,2.536,0.161717396775766,8,2.2,1814.04,2.2,1.44,5.716,0,0.207828162
NH-NH-Pt,0.813333333333333,4.83104872871963,2.552,0.161717396775766,7.84,2.2,2027.39,2.4,1.44,5.716,0.056568542494924,0.009863932
NH-NH-Re,0.94,5.14357132938804,2.476,0.277400390009806,10.56,1.9,3444.99,2.4,1.44,5.716,0.212132034355964,0.009259606
NH-NH-Ru,0.84,4.79374184427241,2.536,0.161717396775766,9.92,2.2,2592.99,2.2,1.44,5.716,0,0.05177021
NH-NH-Sn,0.92,6.18992466956555,2.488,0.252932696862804,5.12,1.96,491.07,2.2,1.28,5.716,0.169705627484772,-0.16081176
NH-NH-Tc,0.94,5.49462836425599,2.476,0.277400390009806,10.88,1.9,2415.99,2.2,1.44,5.716,0.212132034355964,-0.078776682
NH-NH-Te,0.873333333333333,5.17602374201481,2.516,0.198203144033059,4.48,2.1,708.65,2.2,1.6,5.8088,0.070710678118655,0.438698436
NH-NH-Ti,1.06,7.13270634331576,2.404,0.430217175269077,14.08,1.54,1926.99,2,1.44,5.716,0.466690475583121,-0.862083032
NH-NH-W,0.786666666666667,4.14625393800671,2.568,0.161717396775766,11.52,2.2,3680.99,2.4,1.44,5.716,0.113137084989847,-0.270395826
NH-NH-Zr,1.13,6.68001768912571,2.362,0.518584713558295,13.76,1.33,2113.99,2.2,1.44,5.716,0.615182899632296,-0.969671146
PH-PH-Ce,0.35,4.11531059124071,1.98,0.252932696862804,23.2,1.12,1056.99,2.8,1.44,3.7912,0.763675323681471,-0.37898788
PH-PH-Ge,0.053333333333333,4.87245407279037,2.158,0.008984396926888,4.96,2.01,1197.39,2.4,1.28,3.8678,0.134350288425444,0.280936896
PH-PH-Hf,0.29,5.13650597526174,2.016,0.183313517401889,13.6,1.3,2491.99,2.8,1.44,3.7912,0.636396103067893,-0.336532664
PH-PH-Ir,-0.01,4.45757662257314,2.196,2.49996875025804E-05,8.8,2.19,2724.99,2.8,1.44,3.7912,0,-0.260564708
PH-PH-Mo,0.003333333333333,3.26632418085569,2.188,0.000399920010666,12,2.16,2881.99,2.6,1.44,3.7912,0.028284271247462,-0.09344398
PH-PH-Os,0.01,3.20468065025977,2.196,2.49996875025804E-05,9.76,2.19,3291.99,2.8,1.44,3.7912,0,0.025126144
PH-PH-Pd,-0.01,3.46562263103613,2.196,2.49996875025804E-05,8.16,2.19,1814.04,2.6,1.44,3.7912,0,-0.056519918
PH-PH-Pt,0.09,3.47900354612292,2.212,0.002022951070761,7.84,2.19,2027.39,2.8,1.44,3.7912,0,-0.32636184
PH-PH-Re,0.09,3.70406176785134,2.136,0.022248762806664,10.72,1.9,3444.99,2.8,1.44,3.7912,0.212132034355964,0.092266836
PH-PH-Ru,-0.01,3.45213758169679,2.196,2.49996875025804E-05,10.08,2.19,2592.99,2.6,1.44,3.7912,0,-0.053067674
PH-PH-Sn,0.07,4.45757662257314,2.148,0.014296815877557,4.8,1.96,491.07,2.6,1.28,3.7912,0.169705627484772,0.17941421
PH-PH-Tc,-0.29,3.95686995459896,2.136,0.022248762806664,11.04,1.9,2415.99,2.6,1.44,3.7912,0,-0.011901358
PH-PH-Te,-0.09,3.72743186096127,2.176,0.00249687760254,4,2.1,708.65,2.6,1.6,3.884,0,0.39332581
PH-PH-Ti,0.21,5.13650597526174,2.064,0.103179904976213,14.24,1.54,1926.99,2.4,1.44,3.7912,0.466690475583121,-0.282501776
PH-PH-W,-0.063333333333334,2.9858593782544,2.228,0.007198962432379,11.68,2.19,3680.99,2.8,1.44,3.7912,0.113137084989847,-0.01032999
PH-PH-Zr,0.28,4.81050938080508,2.022,0.172399724317498,13.92,1.33,2113.99,2.6,1.44,3.7912,0.615182899632296,-0.345964568
S-S-Ce,1.46,5.39258240824541,2.09333333333333,0.413099512040662,32.4444444444444,1.12,682.64,4,1.77777777777778,1.468,0,-1.8923836313
S-S-Ge,0.57,6.38472103997173,2.39,0.07801377879469,4,2.01,823.04,3.33333333333333,0.888888888888889,1.59566666666667,0,-0.223975258
S-S-Hf,1.28,6.73072691548489,2.15333333333333,0.336084236664527,19.1111111111111,1.3,2117.64,4,1.77777777777778,1.468,0,-1.760390918
S-S-Ir,0.38,5.84107778631766,2.45333333333333,0.035456165723185,12.4444444444444,2.2,2350.64,4,1.77777777777778,1.468,0,-0.2752142847
S-S-Mo,0.42,4.28009549383699,2.44,0.04314173313809,16.8888888888889,2.16,2507.64,3.66666666666667,1.77777777777778,1.468,0,-0.6205398747
S-S-Os,0.38,4.19931961767804,2.45333333333333,0.035456165723185,13.7777777777778,2.2,2917.64,4,1.77777777777778,1.468,0,0.0252655353
S-S-Pd,0.38,4.54125034293176,2.45333333333333,0.035456165723185,11.5555555555556,2.2,1439.69,3.66666666666667,1.77777777777778,1.468,0,-0.2511470647
S-S-Pt,0.3,4.55878430196194,2.48,0.022248762806664,11.1111111111111,2.28,1653.04,4,1.77777777777778,1.468,0,-0.5163082947
S-S-Re,0.68,4.85369400085729,2.35333333333333,0.109168515365691,15.1111111111111,1.9,3070.64,4,1.77777777777778,1.468,0,-0.1530821547
S-S-Ru,0.38,4.5235799294285,2.45333333333333,0.035456165723185,14.2222222222222,2.2,2218.64,3.66666666666667,1.77777777777778,1.468,0,-0.2175198347
S-S-Sn,0.62,5.84107778631766,2.37333333333333,0.091626825790732,3.55555555555556,1.96,116.72,3.66666666666667,0.888888888888889,1.468,0,-0.4464822747
S-S-Tc,0.68,5.18496644075949,2.35333333333333,0.109168515365691,15.5555555555556,1.9,2041.64,3.66666666666667,1.77777777777778,1.468,0,-0.334471388
S-S-Te,0.48,4.88431748605715,2.42,0.055972517082164,0.888888888888891,2.1,334.3,3.66666666666667,0,1.62266666666667,0,-1.66413E-05
S-S-Ti,1.04,6.73072691548489,2.23333333333333,0.236925796398664,20,1.54,1552.64,3.33333333333333,1.77777777777778,1.468,0,-1.4738246613
S-S-W,0.22,3.91258263493907,2.50666666666667,0.012027089369162,16.4444444444444,2.36,3306.64,4,1.77777777777778,1.468,0,-0.5362923047
S-S-Zr,1.25,6.30355053075304,2.16333333333333,0.323366153838271,19.5555555555556,1.33,1739.64,3.66666666666667,1.77777777777778,1.468,0,-1.7689884513
Se-Se-Ce,1.43,4.83310449438422,2.07333333333333,0.400239577896362,32.8888888888889,1.12,577,4.66666666666667,1.77777777777778,0.532666666666667,0,-1.7034721633
Se-Se-Ge,0.54,5.72230920504693,2.37,0.070306205243046,4.44444444444444,2.01,717.4,4,0.888888888888889,0.660333333333333,0,-0.1088241233
Se-Se-Hf,1.25,6.03241713208927,2.13333333333333,0.323366153838271,19.5555555555556,1.3,2012,4.66666666666667,1.77777777777778,0.532666666666667,0,-1.4746553467
Se-Se-Ir,0.35,5.23506868581822,2.43333333333333,0.030160805409298,12.8888888888889,2.2,2245,4.66666666666667,1.77777777777778,0.532666666666667,0,-0.2053248033
Se-Se-Mo,0.39,3.83603757932887,2.42,0.037311126631477,17.3333333333333,2.16,2402,4.33333333333333,1.77777777777778,0.532666666666667,0,-0.41638306
Se-Se-Os,0.35,3.76364216270905,2.43333333333333,0.030160805409298,14.2222222222222,2.2,2812,4.66666666666667,1.77777777777778,0.532666666666667,0,0.16379963
Se-Se-Pd,0.35,4.07009773443383,2.43333333333333,0.030160805409298,12,2.2,1334.05,4.33333333333333,1.77777777777778,0.532666666666667,0,-0.2899102833
Se-Se-Pt,0.27,4.08581255337912,2.46,0.018059929014893,11.5555555555556,2.28,1547.4,4.66666666666667,1.77777777777778,0.532666666666667,0,-0.51375614
Se-Se-Re,0.65,4.3501255083354,2.33333333333333,0.100238004432346,15.5555555555556,1.9,2965,4.66666666666667,1.77777777777778,0.532666666666667,0,0.04660284
Se-Se-Ru,0.35,4.0542606181035,2.43333333333333,0.030160805409298,14.6666666666667,2.2,2113,4.33333333333333,1.77777777777778,0.532666666666667,0,-0.1325578133
Se-Se-Sn,0.59,5.23506868581822,2.35333333333333,0.083345821007779,4,1.96,11.08,4.33333333333333,0.888888888888889,0.532666666666667,0,-0.3580040033
Se-Se-Tc,0.65,4.64702858685096,2.33333333333333,0.100238004432346,16,1.9,1936,4.33333333333333,1.77777777777778,0.532666666666667,0,-0.1985157333
Se-Se-Te,0.45,4.37757182120525,2.4,0.049364908141302,0.444444444444443,2.1,228.66,4.33333333333333,0,0.687333333333333,0,-0.0723425033
Se-Se-Ti,1.01,6.03241713208927,2.21333333333333,0.225102874709209,20.4444444444444,1.54,1447,4,1.77777777777778,0.532666666666667,0,-1.2483220233
Se-Se-W,0.19,3.50665400841346,2.48666666666667,0.008984396926888,16.8888888888889,2.36,3201,4.66666666666667,1.77777777777778,0.532666666666667,0,-0.2542250733
Se-Se-Zr,1.22,5.64956009836356,2.14333333333333,0.310714689453374,20,1.33,1634,4.33333333333333,1.77777777777778,0.532666666666667,0,-1.5213829267
Te-Te-Ce,0.98,8.38637246146847,1.77333333333333,0.213450797786545,33.3333333333333,1.12,348.34,5.33333333333333,1.77777777777778,0.309333333333333,0,-1.29231081
Te-Te-Ge,0.09,9.92931487183321,2.07,0.002022951070761,4.88888888888889,2.01,488.74,4.66666666666667,0.888888888888889,0.437,0,0.0177108633
Te-Te-Hf,0.8,10.4674121926035,1.83333333333333,0.147856211033789,20,1.3,1783.34,5.33333333333333,1.77777777777778,0.309333333333333,0,-0.97197191
Te-Te-Ir,-0.1,9.0838581933527,2.13333333333333,0.00249687760254,13.3333333333333,2.1,2016.34,5.33333333333333,1.77777777777778,0.309333333333333,0,-0.3676483233
Te-Te-Mo,-0.06,6.65626823376609,2.12,0.000899595121473,17.7777777777778,2.1,2173.34,5,1.77777777777778,0.309333333333333,0,-0.1939881667
Te-Te-Os,-0.1,6.53064816306776,2.13333333333333,0.00249687760254,14.6666666666667,2.1,2583.34,5.33333333333333,1.77777777777778,0.309333333333333,0,0.10159672
Te-Te-Pd,-0.1,7.06240793990737,2.13333333333333,0.00249687760254,12.4444444444444,2.1,1105.39,5,1.77777777777778,0.309333333333333,0,-0.4003741233
Te-Te-Pt,-0.18,7.08967619470982,2.16,0.008067283394429,12,2.1,1318.74,5.33333333333333,1.77777777777778,0.309333333333333,0,-0.6220012767
Te-Te-Re,0.2,7.54831036850645,2.03333333333333,0.009950166250832,16,1.9,2736.34,5.33333333333333,1.77777777777778,0.309333333333333,0,0.2213317433
Te-Te-Ru,-0.1,7.03492747545309,2.13333333333333,0.00249687760254,15.1111111111111,2.1,1884.34,5,1.77777777777778,0.309333333333333,0,-0.1601993067
Te-Te-Sn,0.14,9.0838581933527,2.05333333333333,0.00488801458417,4.44444444444444,1.96,217.58,5,0.888888888888889,0.309333333333333,0,-0.1621813433
Te-Te-Tc,0.2,8.06349471932719,2.03333333333333,0.009950166250832,16.4444444444444,1.9,1707.34,5,1.77777777777778,0.309333333333333,0,-0.1064729567
Te-Te-Ti,0.56,10.4674121926035,1.91333333333333,0.075405485239789,20.8888888888889,1.54,1218.34,4.66666666666667,1.77777777777778,0.309333333333333,0,-0.8569154633
Te-Te-W,-0.26,6.08472393721823,2.18666666666667,0.016757996080745,17.3333333333333,2.1,2972.34,5.33333333333333,1.77777777777778,0.309333333333333,0,0.06218692
Te-Te-Zr,0.77,9.80308108036547,1.84333333333333,0.137762910230166,20.4444444444444,1.33,1405.34,5,1.77777777777778,0.309333333333333,0,-1.07013484
NH-Br-Al,1.095,8.84719819379855,2.4525,0.400239577896362,8,1.61,919.46,2.5,1.75,3.93675,0.417193000900063,-0.9949577625
NH-Br-Bi,0.89,5.30960640575874,2.555,0.229025515499885,4.75,2.02,530.39,3.25,1.375,3.93675,0.127279220613579,-0.134123015
NH-Br-Ce,1.34,5.00660460532971,2.33,0.602118079548795,28,1.12,1056.99,3.25,2,3.93675,0.763675323681471,-1.537077315
NH-Br-Co,0.96,5.12445006988425,2.52,0.285662686264043,11.875,1.88,1753.99,2.75,2,3.93675,0.226274169979695,-0.1539866725
NH-Br-Cr,1.07,5.16255146937099,2.465,0.378798640994549,15.25,1.66,2165.99,2.75,2,3.93675,0.381837661840736,-0.6522229725
NH-Br-Fe,0.985,5.82918307965678,2.5075,0.306514536143557,13,1.83,1796.99,2.75,2,3.93675,0.261629509039023,-0.125543245
NH-Br-Ga,0.995,6.35819101274889,2.5025,0.314923658853183,7.75,1.81,288.9,2.75,1.75,3.93675,0.275771644662754,-0.4970191525
NH-Br-Gd,1.3,5.61365714241126,2.35,0.571043601320927,23.5,1.2,1571.99,3.25,2,3.93675,0.707106781186548,-1.463191315
NH-Br-In,1.01,5.8143126500601,2.495,0.327598737602997,7.5,1.78,415.74,3,1.75,3.93675,0.29698484809835,-0.5077467275
NH-Br-Ir,0.8,4.9248494718953,2.6,0.161717396775766,11.25,2.2,2724.99,3.25,2,3.93675,0,0.1006350975
NH-Br-La,1.35,6.15211111342572,2.325,0.609723571536479,28.75,1.1,1178.99,3.25,2,3.93675,0.777817459305202,-1.51909123
NH-Br-Lu,1.265,5.67691494174564,2.3675,0.543069966787304,18.25,1.27,1921.99,3.25,2,3.93675,0.657609306503489,-1.5673452225
NH-Br-Nd,1.33,5.18139306509917,2.335,0.59444549493668,26.5,1.14,1279.99,3.25,2,3.93675,0.749533188057741,-1.467830015
NH-Br-Rh,0.76,5.53252355047014,2.62,0.161717396775766,11.5,2.2,2222.99,3,2,3.93675,0.056568542494924,-0.1277085675
NH-Br-Ru,0.8,5.44893787342876,2.6,0.161717396775766,12.625,2.2,2592.99,3,2,3.93675,0,0.0391553725
NH-Br-Sc,1.22,7.19165700295632,2.39,0.506187801966654,29.5,1.36,1799.99,2.75,2,3.93675,0.5939696961967,-1.4834892375
NH-Br-Sm,1.315,5.14357132938804,2.3425,0.582814787035019,25,1.17,1330.99,3.25,2,3.93675,0.728319984622144,-1.490920575
NH-Br-Y,1.29,6.77859474360975,2.355,0.563121432466778,29.125,1.22,1784.99,3,2,3.93675,0.692964645562817,-1.5659198425
NH-Cl-Al,1.195,9.18519989623933,2.5025,0.451531264011087,7.75,1.61,919.46,2.25,1.75,4.19575,0.417193000900063,-1.21754101
NH-Cl-Bi,0.99,5.51245661495773,2.605,0.277400390009806,4.5,2.02,530.39,3,1.375,4.19575,0.127279220613579,-0.1995833875
NH-Cl-Ce,1.44,5.19787881926509,2.38,0.646686671641399,27.875,1.12,1056.99,3,2,4.19575,0.763675323681471,-1.631745605
NH-Cl-Co,1.06,5.32022649647179,2.57,0.336084236664527,11.75,1.88,1753.99,2.5,2,4.19575,0.226274169979695,-0.376345045
NH-Cl-Cr,1.17,5.35978353621998,2.515,0.430217175269077,15.125,1.66,2165.99,2.5,2,4.19575,0.381837661840736,-0.82154837
NH-Cl-Fe,1.085,6.05188339241162,2.5575,0.357394966944066,12.875,1.83,1796.99,2.5,2,4.19575,0.261629509039023,-0.3560430875
NH-Cl-Ga,1.095,6.60110174444915,2.5525,0.365948438141932,7.5,1.81,288.9,2.5,1.75,4.19575,0.275771644662754,-0.6696829075
NH-Cl-Gd,1.4,5.82812342082964,2.4,0.617260240551931,23.375,1.2,1571.99,3,2,4.19575,0.707106781186548,-1.579634765
NH-Cl-In,1.11,6.03644484730429,2.545,0.378798640994549,7.25,1.78,415.74,2.75,1.75,4.19575,0.29698484809835,-0.62517706
NH-Cl-Ir,0.9,5.11300028182425,2.65,0.205784147383453,11,2.2,2724.99,3,2,4.19575,0,-0.0519011375
NH-Cl-La,1.45,6.38714869079121,2.375,0.653855859626721,28.625,1.1,1178.99,3,2,4.19575,0.777817459305202,-1.626459765
NH-Cl-Lu,1.365,5.89379794502983,2.4175,0.590584603914435,18.125,1.27,1921.99,3,2,4.19575,0.657609306503489,-1.706892705
NH-Cl-Nd,1.43,5.37934496339008,2.385,0.639441117518025,26.375,1.14,1279.99,3,2,4.19575,0.749533188057741,-1.5761979875
NH-Cl-Rh,0.86,5.74389017048814,2.67,0.205784147383453,11.375,2.2,2222.99,2.75,2,4.19575,0.056568542494924,-0.2937899875
NH-Cl-Ru,0.9,5.65711115466077,2.65,0.205784147383453,12.5,2.2,2592.99,2.75,2,4.19575,0,-0.14560421
NH-Cl-Sc,1.32,7.46640978424625,2.44,0.555141933777059,29.375,1.36,1799.99,2.5,2,4.19575,0.5939696961967,-1.632271445