Compound,mean EN difference,geom-mean_eta_both,MagpieData mean Electronegativity,max ionic char,MagpieData avg_dev MendeleevNumber,MagpieData minimum Electronegativity,MagpieData range MeltingT,MagpieData mean Row,MagpieData avg_dev NpValence,MagpieData mean GSbandgap,std_dev EN difference,Formation_energy
Se-F-Fe,1.435,6.35588146259555,2.78666666666667,0.685139312535294,16,1.83,1757.5,3.33333333333333,2,0.923,0,-1.0888410933
Se-F-Ga,1.455,6.93268813851559,2.78,0.691867378684938,7.55555555555556,1.81,440.5,3.33333333333333,1.55555555555556,0.923,0,-1.1802182533
Se-F-Gd,2.065,6.12088158516367,2.57666666666667,0.855156292905333,28.4444444444444,1.2,1532.5,4,2,0.923,0,-2.77315152666667
Se-F-In,1.485,6.33966740883831,2.77,0.701802720570113,7.11111111111111,1.78,440.5,3.66666666666667,1.55555555555556,0.923,0,-1.3205396433
Se-F-Ir,1.065,5.36983639675559,2.91,0.547107278760105,13.7777777777778,2.2,2685.5,4,2,0.923,0,-0.7926604167
Se-F-La,2.165,6.7079877998879,2.54333333333333,0.874267670405572,34.6666666666667,1.1,1139.5,4,2,0.923,0,-2.86934636
Se-F-Lu,1.995,6.18985507058346,2.6,0.840550018252867,22.2222222222222,1.27,1882.5,4,2,0.923,0,-2.7297348933
Se-F-Nd,2.125,5.64956009836356,2.55666666666667,0.866866114605718,32,1.14,1240.5,4,2,0.923,0,-2.7590426133
Se-F-Rh,0.985,6.03241713208927,2.93666666666667,0.514463104845921,14.2222222222222,2.28,2183.5,3.66666666666667,2,0.923,0,-1.11350849
Se-F-Ru,1.065,5.94127903469449,2.91,0.547107278760105,15.5555555555556,2.2,2553.5,3.66666666666667,2,0.923,0,-0.8015571967
Se-F-Sc,1.905,7.84146231226742,2.63,0.820234130541532,35.5555555555556,1.36,1760.5,3.33333333333333,2,0.923,0,-2.6319284033
Se-F-Sm,2.095,5.60832096320438,2.56666666666667,0.861103329501181,30.2222222222222,1.17,1291.5,4,2,0.923,0,-2.7591457333
Se-F-Y,2.045,7.39107763208111,2.58333333333333,0.851088036998852,35.1111111111111,1.22,1745.5,3.66666666666667,2,0.923,0,-2.79987739
Se-I-Al,0.995,7.79964933773112,2.27333333333333,0.240902461029019,8.66666666666667,1.61,546.62,4,1.55555555555556,0.620333333333333,0,-0.7845805633
Se-I-Bi,0.585,4.68092464745705,2.41,0.097331587919058,3.77777777777778,2.02,157.55,5,0.666666666666667,0.620333333333333,0,-0.37043652
Se-I-Ce,1.485,4.41379965033602,2.11,0.447277935696606,34.4444444444444,1.12,684.15,5,2,0.620333333333333,0,-1.99569914666667
Se-I-Co,0.725,4.51769167122594,2.36333333333333,0.141097613792152,15.3333333333333,1.88,1381.15,4.33333333333333,2,0.620333333333333,0,-0.1692475367
Se-I-Cr,0.945,4.55128169020864,2.29,0.221199216928595,19.3333333333333,1.66,1793.15,4.33333333333333,2,0.620333333333333,0,-0.7095795367
Se-I-Fe,0.775,5.13898105940789,2.34666666666667,0.158210250834464,16.6666666666667,1.83,1424.15,4.33333333333333,2,0.620333333333333,0,-0.0940248133
Se-I-Ga,0.795,5.60535202619471,2.34,0.165251669366129,8.22222222222222,1.81,191.09,4.33333333333333,1.55555555555556,0.620333333333333,0,-0.40791264
Se-I-Gd,1.405,4.9489743819403,2.13666666666667,0.413099512040662,29.1111111111111,1.2,1199.15,5,2,0.620333333333333,0,-1.83386192333334
Se-I-In,0.825,5.12587135689927,2.33,0.176012566668297,7.77777777777778,1.78,107.15,4.66666666666667,1.55555555555556,0.620333333333333,0,-0.5807815
Se-I-Ir,0.405,4.34172469978333,2.47,0.051525144774396,14.4444444444444,2.2,2352.15,5,2,0.620333333333333,0,-0.14658456
Se-I-La,1.505,5.42367293242214,2.10333333333333,0.455779073674793,35.3333333333333,1.1,806.15,5,2,0.620333333333333,0,-1.9507996567
Se-I-Lu,1.335,5.00474216761403,2.16,0.383085599679248,22.8888888888889,1.27,1549.15,5,2,0.620333333333333,0,-1.76007179
Se-I-Nd,1.465,4.56789235455954,2.11666666666667,0.438756263556765,32.6666666666667,1.14,907.15,5,2,0.620333333333333,0,-1.8424393233
Se-I-Rh,0.325,4.87744737951654,2.49666666666667,0.035456165723185,14.8888888888889,2.28,1850.15,4.66666666666667,2,0.620333333333333,0,-0.3630100467
Se-I-Ru,0.405,4.80375863011828,2.47,0.051525144774396,16.2222222222222,2.2,2220.15,4.66666666666667,2,0.620333333333333,0,-0.07371807
Se-I-Sc,1.245,6.34013181931604,2.19,0.344593745673159,36.2222222222222,1.36,1427.15,4.33333333333333,2,0.620333333333333,0,-1.6495321233
Se-I-Sm,1.435,4.53454888587835,2.12666666666667,0.425942090430698,30.8888888888889,1.17,958.15,5,2,0.620333333333333,0,-1.8296675467
Se-I-Y,1.385,5.97597802655796,2.14333333333333,0.40452745776073,35.7777777777778,1.22,1412.15,4.66666666666667,2,0.620333333333333,0,-1.86301981
Se-NC-Al,0.715,8.84719819379855,2.4375,0.400239577896362,5.25,1.61,3759.95,2.75,1,2.933,0.664680374315355,0.026773695
Se-NC-Bi,0.51,5.30960640575874,2.54,0.229025515499885,4,2.02,3759.95,3.5,0.5,2.933,0.37476659402887,0.4115728375
Se-NC-Ce,0.96,5.00660460532971,2.315,0.602118079548795,25.375,1.12,3759.95,3.5,1.25,2.933,1.01116269709676,-0.698588465
Se-NC-Co,0.58,5.12445006988425,2.505,0.285662686264043,9.25,1.88,3759.95,3,1.25,2.933,0.473761543394987,0.42396823
Se-NC-Cr,0.69,5.16255146937099,2.45,0.378798640994549,12.625,1.66,3759.95,3,1.25,2.933,0.629325035256027,0.163408915
Se-NC-Fe,0.605,5.82918307965678,2.4925,0.306514536143557,10.375,1.83,3759.95,3,1.25,2.933,0.509116882454314,0.48078645
Se-NC-Ga,0.615,6.35819101274889,2.4875,0.314923658853183,5,1.81,3759.95,3,1,2.933,0.523259018078045,0.3879326575
Se-NC-Gd,0.92,5.61365714241126,2.335,0.571043601320927,20.875,1.2,3759.95,3.5,1.25,2.933,0.954594154601839,-0.767092222499997
Se-NC-In,0.63,5.8143126500601,2.48,0.327598737602997,4.75,1.78,3759.95,3.25,1,2.933,0.544472221513641,0.2732390625
Se-NC-Ir,0.42,4.9248494718953,2.585,0.161717396775766,8.5,2.2,3759.95,3.5,1.25,2.933,0.247487373415291,0.5702261775
Se-NC-La,0.97,6.15211111342572,2.31,0.609723571536479,26.125,1.1,3759.95,3.5,1.25,2.933,1.02530483272049,-0.8424388525
Se-NC-Lu,0.885,5.67691494174564,2.3525,0.543069966787304,15.625,1.27,3759.95,3.5,1.25,2.933,0.905096679918781,-0.73051188
Se-NC-Nd,0.95,5.18139306509917,2.32,0.59444549493668,23.875,1.14,3759.95,3.5,1.25,2.933,0.997020561473032,-0.7662746825
Se-NCO-Al,0.93,8.07115687751086,2.638,0.567089816109359,5.28,1.61,3768.2,2.6,1.04,2.3464,0.664680374315355,-0.713453618
Se-NCO-Bi,0.725,4.84386868248915,2.72,0.395951025061975,3.76,2.02,3768.2,3.2,0.64,2.3464,0.37476659402887,-0.364981648
Se-NCO-Ce,1.175,4.56744500440933,2.54,0.739616569076971,22,1.12,3768.2,3.2,1.28,2.3464,1.01116269709676,-1.313158278
Se-NCO-Co,0.795,4.67495352980775,2.692,0.455779073674793,8.88,1.88,3768.2,2.8,1.28,2.3464,0.473761543394987,-0.409239304
Se-NCO-Cr,0.905,4.709712824872,2.648,0.547107278760105,11.12,1.66,3768.2,2.8,1.28,2.3464,0.629325035256027,-0.677701384
Se-NCO-Fe,0.82,5.31787014069835,2.682,0.476922164006862,9.6,1.83,3768.2,2.8,1.28,2.3464,0.509116882454314,-0.362064696
Se-NCO-Ga,0.83,5.80047558525899,2.678,0.485327755826721,5.04,1.81,3768.2,2.8,1.04,2.3464,0.523259018078045,-0.44065186
Se-NCO-Gd,1.135,5.12124928824582,2.556,0.714753054942695,18.16,1.2,3768.2,3.2,1.28,2.3464,0.954594154601839,-0.477850472
Se-NCO-In,0.845,5.30430408651016,2.672,0.497871893693153,4.8,1.78,3768.2,3,1.04,2.3464,0.544472221513641,-0.505341198
Se-NCO-Ir,0.635,4.4928611086904,2.756,0.319140970908075,8.4,2.2,3768.2,3.2,1.28,2.3464,0.247487373415291,-0.27725162
Se-NCO-La,1.185,5.61247220155444,2.536,0.745613369000596,22.64,1.1,3768.2,3.2,1.28,2.3464,1.02530483272049,-1.33080206
Se-NCO-Lu,1.1,5.1789583630252,2.57,0.691867378684938,13.68,1.27,3768.2,3.2,1.28,2.3464,0.905096679918781,-1.28012752
Se-NCO-Nd,1.165,4.72690171016807,2.544,0.733531702186476,20.72,1.14,3768.2,3.2,1.28,2.3464,0.997020561473032,-1.287750434
Se-NCO-Rh,0.595,5.04723241485287,2.772,0.285662686264043,8.64,2.28,3768.2,3,1.28,2.3464,0.190918830920368,-0.449087436
Se-NCO-Ru,0.635,4.97097854358922,2.756,0.319140970908075,9.36,2.2,3768.2,3,1.28,2.3464,0.247487373415291,-0.272278352
Se-NCO-Sc,1.055,6.56083322749531,2.588,0.660947392745558,23.28,1.36,3768.2,2.8,1.28,2.3464,0.841457069611991,-1.234832872
Se-NCO-Sm,1.15,4.69239754787652,2.55,0.724240177376075,19.44,1.17,3768.2,3.2,1.28,2.3464,0.975807358037435,-1.289724902
Se-NCO-Y,1.125,6.18400315967767,2.56,0.708320592678053,22.96,1.22,3768.2,3,1.28,2.3464,0.940452018978108,-1.31813436
Se-NC-Rh,0.38,5.53252355047013,2.605,0.134458537778234,8.875,2.28,3759.95,3.25,1.25,2.933,0.190918830920368,0.3505724175
Se-NC-Ru,0.42,5.44893787342876,2.585,0.161717396775766,10,2.2,3759.95,3.25,1.25,2.933,0.247487373415291,0.5742840575
Se-NCS-Al,0.643333333333333,8.00499687825115,2.466,0.400239577896362,5.44,1.61,3759.95,2.8,1.04,2.7868,0.664680374315355,-0.2333656194
Se-NCS-Bi,0.438333333333333,4.80416305499223,2.548,0.229025515499885,3.92,2.02,3759.95,3.4,0.64,2.7868,0.37476659402887,0.0657821826
Se-NC-Sc,0.84,7.19165700295632,2.375,0.506187801966654,26.875,1.36,3759.95,3,1.25,2.933,0.841457069611991,-0.654586
Se-NCS-Ce,0.888333333333333,4.53000524667739,2.368,0.602118079548795,22.08,1.12,3759.95,3.4,1.28,2.7868,1.01116269709676,-0.920051239400001
Se-NCS-Co,0.508333333333333,4.63663251501827,2.52,0.285662686264043,9.04,1.88,3759.95,3,1.28,2.7868,0.473761543394987,0.0995300706
Se-NCS-Cr,0.618333333333333,4.67110688501284,2.476,0.378798640994549,11.2,1.66,3759.95,3,1.28,2.7868,0.629325035256027,-0.1430725194
Se-NCS-Fe,0.533333333333333,5.27427908059244,2.51,0.306514536143557,9.76,1.83,3759.95,3,1.28,2.7868,0.509116882454314,0.1744392586
Se-NCS-Ga,0.543333333333333,5.75292856489367,2.506,0.314923658853183,5.2,1.81,3759.95,3,1.04,2.7868,0.523259018078045,0.0413540006
Se-NCS-Gd,0.848333333333333,5.07926994696165,2.384,0.571043601320927,18.24,1.2,3759.95,3.4,1.28,2.7868,0.954594154601839,-0.8126609894
Se-NCS-In,0.558333333333333,5.26082422857125,2.5,0.327598737602997,5.04,1.78,3759.95,3.2,1.04,2.7868,0.544472221513641,-0.0453073734
Se-NCS-Ir,0.348333333333333,4.45603272186357,2.584,0.161717396775766,8.56,2.2,3759.95,3.4,1.28,2.7868,0.247487373415291,0.1793466086
Se-NCS-La,0.898333333333333,5.56646626184403,2.364,0.609723571536479,22.72,1.1,3759.95,3.4,1.28,2.7868,1.02530483272049,-0.9086193214
Se-NCS-Lu,0.813333333333333,5.13650597526174,2.398,0.543069966787304,13.76,1.27,3759.95,3.4,1.28,2.7868,0.905096679918781,-0.8225402894
Se-NC-Sm,0.935,5.14357132938804,2.3275,0.582814787035019,22.375,1.17,3759.95,3.5,1.25,2.933,0.975807358037435,-0.761682745
Se-NCS-Nd,0.878333333333333,4.68815487146929,2.372,0.59444549493668,20.8,1.14,3759.95,3.4,1.28,2.7868,0.997020561473032,-0.8347139234
Se-NCS-Rh,0.308333333333333,5.00585979654078,2.6,0.134458537778234,8.8,2.28,3759.95,3.2,1.28,2.7868,0.190918830920368,0.0172904006
Se-NCS-Ru,0.348333333333333,4.93023098512207,2.584,0.161717396775766,9.52,2.2,3759.95,3.2,1.28,2.7868,0.247487373415291,0.2116408746
Se-NCS-Sc,0.768333333333333,6.50705348711092,2.416,0.506187801966654,23.36,1.36,3759.95,3,1.28,2.7868,0.841457069611991,-0.7781257434
Se-NCS-Sm,0.863333333333333,4.65393354290112,2.378,0.582814787035019,19.52,1.17,3759.95,3.4,1.28,2.7868,0.975807358037435,-0.8463522454
Se-NCS-Y,0.838333333333333,6.13331232927065,2.388,0.563121432466778,23.04,1.22,3759.95,3.2,1.28,2.7868,0.940452018978108,-0.8713076414
Se-NC-Y,0.91,6.77859474360975,2.34,0.563121432466778,26.5,1.22,3759.95,3.25,1.25,2.933,0.940452018978108,-0.79277953
Se-NO-Al,0.67,8.38675160251537,2.66,0.567089816109359,5.25,1.61,878.67,2.75,1,1.809,1.01116269709676,-0.260154735
Se-NO-Bi,0.465,5.03327144444855,2.7625,0.395951025061975,2,2.02,489.6,3.5,0.5,1.809,0.721248916810279,0.130332375
Se-NO-Ce,0.915,4.74603917275665,2.5375,0.739616569076971,26.625,1.12,1016.2,3.5,1.375,1.809,1.35764501987817,-1.0167719
Se-NO-Co,0.535,4.85775144788062,2.7275,0.455779073674793,10.5,1.88,1713.2,3,1.375,1.809,0.820243866176395,-0.0016092625
Se-NO-Cr,0.645,4.89386988517611,2.6725,0.547107278760105,13.875,1.66,2125.2,3,1.375,1.809,0.975807358037435,-0.294105235
Se-NO-Fe,0.56,5.52580709324846,2.715,0.476922164006862,11.625,1.83,1756.2,3,1.375,1.809,0.855599205235722,-0.067084295
Se-NO-Ga,0.57,6.02728315758185,2.71,0.485327755826721,5,1.81,439.2,3,1,1.809,0.869741340859453,0.01172563
Se-NO-Gd,0.875,5.32149806117042,2.5575,0.714753054942695,22.125,1.2,1531.2,3.5,1.375,1.809,1.30107647738325,-0.9261640025
Se-NO-In,0.585,5.51171058534639,2.7025,0.497871893693153,4.75,1.78,439.2,3.25,1,1.809,0.89095454429505,-0.00272094
Se-NO-Ir,0.81,4.66853893128748,2.8075,0.319140970908075,9.75,2.2,2684.2,3.5,1.375,1.809,0,0.2132226975
Se-NO-La,0.925,5.83192855061642,2.5325,0.745613369000596,27.375,1.1,1138.2,3.5,1.375,1.809,1.3717871555019,-1.04800918
Se-NO-Lu,0.84,5.38146365008547,2.575,0.691867378684938,16.875,1.27,1881.2,3.5,1.375,1.809,1.25157900270019,-0.9359624675
Se-NO-Nd,0.905,4.91173088248914,2.5425,0.733531702186476,25.125,1.14,1239.2,3.5,1.375,1.809,1.34350288425444,-0.942685275
Se-NO-Rh,0.335,5.24458701347772,2.8275,0.285662686264043,10.125,2.28,2182.2,3.25,1.375,1.809,0.537401153701776,0.015654075
Se-NO-Ru,0.81,5.16535149783555,2.8075,0.319140970908075,11.25,2.2,2552.2,3.25,1.375,1.809,0,0.0961638625
Se-NO-Sc,0.795,6.81737196037525,2.5975,0.660947392745558,28.125,1.36,1759.2,3,1.375,1.809,1.1879393923934,-0.85587575
Se-NO-Sm,0.89,4.87587755405262,2.55,0.724240177376075,23.625,1.17,1290.2,3.5,1.375,1.809,1.32228968081884,-0.955994975
Se-NO-Y,0.865,6.42580725371572,2.5625,0.708320592678053,27.75,1.22,1744.2,3.25,1.375,1.809,1.28693434175952,-0.985743005
Se-OCN-Al,0.93,8.50657852895363,2.638,0.567089816109359,5.28,1.61,3768.2,2.6,1.04,2.3464,0.664680374315355,-0.41463609
Se-OCN-Bi,0.725,5.10518503813801,2.72,0.395951025061975,3.76,2.02,3768.2,3.2,0.64,2.3464,0.37476659402887,-0.120802622
Se-OCN-Ce,1.175,4.81384889382391,2.54,0.739616569076971,22,1.12,3768.2,3.2,1.28,2.3464,1.01116269709676,-1.12268517
Se-OCN-Co,0.795,4.92715727423489,2.692,0.455779073674793,8.88,1.88,3768.2,2.8,1.28,2.3464,0.473761543394987,-0.10002349
Se-OCN-Cr,0.905,4.96379175892679,2.648,0.547107278760105,11.12,1.66,3768.2,2.8,1.28,2.3464,0.629325035256027,-0.365926204
Se-OCN-Fe,0.82,5.60475786125214,2.682,0.476922164006862,9.6,1.83,3768.2,2.8,1.28,2.3464,0.509116882454314,-0.041279404
Se-OCN-Ga,0.83,6.11339883737968,2.678,0.485327755826721,5.04,1.81,3768.2,2.8,1.04,2.3464,0.523259018078045,-0.15353556
Se-OCN-Gd,1.135,5.3975297343305,2.556,0.714753054942695,18.16,1.2,3768.2,3.2,1.28,2.3464,0.954594154601839,-0.177233238
Se-OCN-In,0.845,5.59045994745474,2.672,0.497871893693153,4.8,1.78,3768.2,3,1.04,2.3464,0.544472221513641,-0.228808334
Se-OCN-Ir,0.635,4.73524135644644,2.756,0.319140970908075,8.4,2.2,3768.2,3.2,1.28,2.3464,0.247487373415291,0.050817542
Se-OCN-La,1.185,5.91525307321445,2.536,0.745613369000596,22.64,1.1,3768.2,3.2,1.28,2.3464,1.02530483272049,-1.133445512
Se-OCN-Lu,1.1,5.45835209026957,2.57,0.691867378684938,13.68,1.27,3768.2,3.2,1.28,2.3464,0.905096679918781,-1.022409756
Se-OCN-Nd,1.165,4.98190794782204,2.544,0.733531702186476,20.72,1.14,3768.2,3.2,1.28,2.3464,0.997020561473032,-0.888689006
Se-OCN-Rh,0.595,5.31951980892078,2.772,0.285662686264043,8.64,2.28,3768.2,3,1.28,2.3464,0.190918830920368,-0.138711104
Se-OCN-Ru,0.635,5.23915220438959,2.756,0.319140970908075,9.36,2.2,3768.2,3,1.28,2.3464,0.247487373415291,0.061933422
Se-OCN-Sc,1.055,6.91477614820801,2.588,0.660947392745558,23.28,1.36,3768.2,2.8,1.28,2.3464,0.841457069611991,-0.963148622
Se-OCN-Sm,1.15,4.94554235977027,2.55,0.724240177376075,19.44,1.17,3768.2,3.2,1.28,2.3464,0.975807358037435,-1.049236676
Se-OCN-Y,1.125,6.51761690417281,2.56,0.708320592678053,22.96,1.22,3768.2,3,1.28,2.3464,0.940452018978108,-1.067550558
Se-SCN-Al,0.643333333333333,7.86929274896729,2.466,0.400239577896362,5.44,1.61,3759.95,2.8,1.04,2.7868,0.664680374315355,-0.1235240974
Se-SCN-Bi,0.438333333333333,4.72272082906374,2.548,0.229025515499885,3.92,2.02,3759.95,3.4,0.64,2.7868,0.37476659402887,0.2423448726
Se-SCN-Ce,0.888333333333333,4.45321066112023,2.368,0.602118079548795,22.08,1.12,3759.95,3.4,1.28,2.7868,1.01116269709676,-0.5869046434
Se-SCN-Co,0.508333333333333,4.55803033842414,2.52,0.285662686264043,9.04,1.88,3759.95,3,1.28,2.7868,0.473761543394987,0.1300146586
Se-SCN-Cr,0.618333333333333,4.59192028416048,2.476,0.378798640994549,11.2,1.66,3759.95,3,1.28,2.7868,0.629325035256027,-0.0478989534
Se-SCN-Fe,0.533333333333333,5.1848672468194,2.51,0.306514536143557,9.76,1.83,3759.95,3,1.28,2.7868,0.509116882454314,0.2562623966
Se-SCN-Ga,0.543333333333333,5.65540246043606,2.506,0.314923658853183,5.2,1.81,3759.95,3,1.04,2.7868,0.523259018078045,0.1273913586
Se-SCN-Gd,0.848333333333333,4.99316399138997,2.384,0.571043601320927,18.24,1.2,3759.95,3.4,1.28,2.7868,0.954594154601839,-0.6277359614
Se-SCN-In,0.558333333333333,5.17164048720174,2.5,0.327598737602997,5.04,1.78,3759.95,3.2,1.04,2.7868,0.544472221513641,0.0585256966
Se-SCN-Ir,0.348333333333333,4.38049215017093,2.584,0.161717396775766,8.56,2.2,3759.95,3.4,1.28,2.7868,0.247487373415291,0.1452740126
Se-SCN-La,0.898333333333333,5.47210114606193,2.364,0.609723571536479,22.72,1.1,3759.95,3.4,1.28,2.7868,1.02530483272049,-0.7227886054
Se-SCN-Lu,0.813333333333333,5.04942973006944,2.398,0.543069966787304,13.76,1.27,3759.95,3.4,1.28,2.7868,0.905096679918781,-0.5873870854
Se-SCN-Nd,0.878333333333333,4.60867926586236,2.372,0.59444549493668,20.8,1.14,3759.95,3.4,1.28,2.7868,0.997020561473032,-0.6634507054
Se-SCN-Rh,0.308333333333333,4.9209983212225,2.6,0.134458537778234,8.8,2.28,3759.95,3.2,1.28,2.7868,0.190918830920368,0.0564867486
Se-SCN-Ru,0.348333333333333,4.84665160174691,2.584,0.161717396775766,9.52,2.2,3759.95,3.2,1.28,2.7868,0.247487373415291,0.2671366326
Se-SCN-Sc,0.768333333333333,6.39674313457712,2.416,0.506187801966654,23.36,1.36,3759.95,3,1.28,2.7868,0.841457069611991,-0.5883327394
Se-SCN-Sm,0.863333333333333,4.57503807188599,2.378,0.582814787035019,19.52,1.17,3759.95,3.4,1.28,2.7868,0.975807358037435,-0.6608063894
Se-SCN-Y,0.838333333333333,6.02933779662205,2.388,0.563121432466778,23.04,1.22,3759.95,3.2,1.28,2.7868,0.940452018978108,-0.6765458354
Se-SH-Al,0.66,8.07115687751086,2.235,0.209607008802607,6.25,1.61,919.46,2.75,1.75,2.7135,0.417193000900063,-0.6419886768
Se-SH-Bi,0.455,4.84386868248915,2.3375,0.075405485239789,1.75,2.02,530.39,3.5,1.375,2.7135,0.127279220613579,-0.1578126318
Se-SH-Ce,0.905,4.56744500440933,2.1125,0.413099512040662,28,1.12,1056.99,3.5,2,2.7135,0.763675323681471,-1.2937599618
Se-SH-Co,0.525,4.67495352980775,2.3025,0.115294095056517,11.875,1.88,1753.99,3,2,2.7135,0.226274169979695,-0.3162987493
Se-SH-Cr,0.635,4.709712824872,2.2475,0.190711651828668,15.25,1.66,2165.99,3,2,2.7135,0.381837661840736,-0.4642885143
Se-SH-Fe,0.55,5.31787014069835,2.29,0.131184943737157,13,1.83,1796.99,3,2,2.7135,0.261629509039023,-0.1600351067
Se-SH-Ga,0.56,5.80047558525899,2.285,0.137762910230166,5.875,1.81,479.99,3,1.75,2.7135,0.275771644662754,-0.3108133393
Se-SH-Gd,0.865,5.12124928824582,2.1325,0.378798640994549,23.5,1.2,1571.99,3.5,2,2.7135,0.707106781186548,-1.2860750267
Se-SH-In,0.575,5.30430408651016,2.2775,0.147856211033789,5.5,1.78,479.99,3.25,1.75,2.7135,0.29698484809835,-0.4001676168
Se-SH-Ir,0.365,4.4928611086904,2.3825,0.035456165723185,11.125,2.2,2724.99,3.5,2,2.7135,0,-0.2978707668
Se-SH-La,0.915,5.61247220155444,2.1075,0.421663847129056,28.75,1.1,1178.99,3.5,2,2.7135,0.777817459305202,-1.3963542793
Se-SH-Lu,0.83,5.1789583630252,2.15,0.348856349613711,18.25,1.27,1921.99,3.5,2,2.7135,0.657609306503489,-1.3082054968
Se-SH-Nd,0.895,4.72690171016807,2.1175,0.40452745776073,26.5,1.14,1279.99,3.5,2,2.7135,0.749533188057741,-1.3242815618
Se-SH-Rh,0.325,5.04723241485287,2.4025,0.035456165723185,11.5,2.2,2222.99,3.25,2,2.7135,0.056568542494924,-0.3944590542
Se-SH-Ru,0.365,4.97097854358922,2.3825,0.035456165723185,12.625,2.2,2592.99,3.25,2,2.7135,0,-0.1372504467
Se-SH-Sc,0.785,6.56083322749531,2.1725,0.310714689453374,29.5,1.36,1799.99,3,2,2.7135,0.5939696961967,-1.2356705592
Se-SH-Sm,0.88,4.69239754787652,2.125,0.39166222482331,25,1.17,1330.99,3.5,2,2.7135,0.728319984622144,-1.3228673293
Se-SH-Y,0.855,6.18400315967767,2.1375,0.370229618598997,29.125,1.22,1784.99,3.25,2,2.7135,0.692964645562817,-1.3628180468
S-F-Al,1.67,10.1896473198231,2.72333333333333,0.754442710372489,7.77777777777778,1.61,879.97,2.66666666666667,1.55555555555556,1.39066666666667,0,-1.9554316923