Compound,mean EN difference,geom-mean_eta_both,MagpieData mean Electronegativity,max ionic char,MagpieData avg_dev MendeleevNumber,MagpieData minimum Electronegativity,MagpieData range MeltingT,MagpieData mean Row,MagpieData avg_dev NpValence,MagpieData mean GSbandgap,std_dev EN difference,Formation_energy
SCN-NCO-Cu,0.691666666666667,5.056870692396,2.72857142857143,0.447277935696606,5.91836734693878,1.9,3768.2,2.42857142857143,1.06122448979592,3.43828571428571,0.459619407771256,0.1285185461
SCN-NCO-Fe,0.715,4.84503335401335,2.71857142857143,0.476922164006862,7.38775510204082,1.83,3768.2,2.42857142857143,1.06122448979592,3.43828571428571,0.509116882454314,-0.0107923081
SCN-NCO-Mg,0.888333333333333,7.97046400398443,2.64428571428571,0.678328679969553,5.26530612244898,1.31,3768.2,2.28571428571429,1.06122448979592,3.43828571428571,0.876812408671319,-0.4032273981
SCN-NCO-Mn,0.808333333333333,5.25230737578211,2.67857142857143,0.590584603914435,7.87755102040816,1.55,3768.2,2.42857142857143,1.06122448979592,3.43828571428571,0.707106781186547,-0.2338336739
SCN-NCO-Ni,0.688333333333333,5.09716618166993,2.73,0.443019472906049,6.40816326530612,1.91,3768.2,2.42857142857143,1.06122448979592,3.43828571428571,0.45254833995939,-0.0488111296
SCN-NCO-Pb,0.548333333333333,5.09716618166993,2.79,0.265103054644222,3.14285714285714,2.33,3768.2,2.71428571428571,0.73469387755102,3.43828571428571,0.15556349186104,-0.0312035696
SCN-NCO-Pd,0.591666666666667,4.73178992638156,2.77142857142857,0.319140970908075,6.24489795918367,2.2,3768.2,2.57142857142857,1.06122448979592,3.43828571428571,0.247487373415291,0.1658219319
SCN-NCO-Pt,0.565,4.99519538461301,2.78285714285714,0.285662686264043,6.08163265306122,2.28,3768.2,2.71428571428571,1.06122448979592,3.43828571428571,0.190918830920368,0.2648084433
SCN-NCO-Sr,1.00833333333333,6.33264319965372,2.59285714285714,0.787757332306276,18.1632653061225,0.95,3768.2,2.57142857142857,1.06122448979592,3.43828571428571,1.13137084989848,-0.6253196253
SCN-NCO-Zn,0.775,5.52073714163323,2.69285714285714,0.551131362113503,5.10204081632653,1.65,3768.2,2.42857142857143,1.06122448979592,3.43828571428571,0.636396103067893,-0.0746994581
SCN-NC-Pb,0.41,5.5872584463838,2.68166666666667,0.118407193312251,2.83333333333333,2.33,3759.95,2.83333333333333,0.666666666666667,4.01133333333333,0.15556349186104,0.5270434955
SCN-NC-Pd,0.453333333333333,5.18675128304874,2.66,0.161717396775766,6,2.2,3759.95,2.66666666666667,1,4.01133333333333,0.247487373415291,0.7594386005
SCN-NC-Pt,0.426666666666667,5.47548316246436,2.67333333333333,0.134458537778234,5.83333333333333,2.28,3759.95,2.83333333333333,1,4.01133333333333,0.190918830920368,0.8984268605
SCN-NCS-Ba,0.813333333333333,5.79452515475339,2.46142857142857,0.685139312535294,17.9591836734694,0.89,3759.95,2.85714285714286,1.06122448979592,3.75285714285714,1.17379725676967,-0.3198626349
SCN-NCS-Be,0.586666666666667,10.1008462513489,2.55857142857143,0.417382851233086,5.55102040816327,1.57,3759.95,2.28571428571429,1.06122448979592,3.75285714285714,0.692964645562816,0.2485993937
SCN-NCS-Ca,0.776666666666667,6.69016154577237,2.47714285714286,0.646686671641399,18.4489795918367,1,3759.95,2.57142857142857,1.06122448979592,3.75285714285714,1.09601551083915,-0.2984666949
SCN-NCS-Cd,0.546666666666667,5.3896463706918,2.57571428571429,0.365948438141932,5.06122448979592,1.69,3759.95,2.71428571428571,1.06122448979592,3.75285714285714,0.608111831820431,0.2555427651
SCN-NCS-Co,0.483333333333334,4.99519538461301,2.60285714285714,0.285662686264043,7.02040816326531,1.88,3759.95,2.57142857142857,1.06122448979592,3.75285714285714,0.473761543394987,0.3302379123
SCN-NCS-Cu,0.476666666666667,5.01541906825553,2.60571428571429,0.277400390009806,6.04081632653061,1.9,3759.95,2.57142857142857,1.06122448979592,3.75285714285714,0.459619407771256,0.4401671451
SCN-NCS-Fe,0.5,4.80531817959914,2.59571428571429,0.306514536143557,7.51020408163265,1.83,3759.95,2.57142857142857,1.06122448979592,3.75285714285714,0.509116882454314,0.3272002509
SCN-NCS-Mg,0.673333333333333,7.90512939327051,2.52142857142857,0.526794252062466,5.38775510204082,1.31,3759.95,2.42857142857143,1.06122448979592,3.75285714285714,0.876812408671319,-0.0690538191
SCN-NCS-Mn,0.593333333333333,5.2092537395603,2.55571428571429,0.425942090430698,8,1.55,3759.95,2.57142857142857,1.06122448979592,3.75285714285714,0.707106781186547,0.3054431923
SCN-NCS-Ni,0.473333333333334,5.05538425177762,2.60714285714286,0.273287979294598,6.53061224489796,1.91,3759.95,2.57142857142857,1.06122448979592,3.75285714285714,0.45254833995939,0.2870517494
SCN-NCS-Pb,0.333333333333333,5.05538425177762,2.66714285714286,0.118407193312251,3.3469387755102,2.33,3759.95,2.85714285714286,0.73469387755102,3.75285714285714,0.15556349186104,0.2761541337
SCN-NCS-Pd,0.376666666666667,4.69300301853458,2.64857142857143,0.161717396775766,6.36734693877551,2.2,3759.95,2.71428571428571,1.06122448979592,3.75285714285714,0.247487373415291,0.464120518
SCN-NCS-Pt,0.35,4.95424931852068,2.66,0.134458537778234,6.20408163265306,2.28,3759.95,2.85714285714286,1.06122448979592,3.75285714285714,0.190918830920368,0.565648268
SCN-NC-Sr,0.87,6.94152651574101,2.45166666666667,0.664463655809218,20.3333333333333,0.95,3759.95,2.66666666666667,1,4.01133333333333,1.13137084989848,-0.1916123828
SCN-NCS-Sr,0.793333333333334,6.28073395346269,2.47,0.664463655809218,18.2040816326531,0.95,3759.95,2.71428571428571,1.06122448979592,3.75285714285714,1.13137084989848,-0.3148809663
SCN-NCS-Zn,0.56,5.47548316246436,2.57,0.383085599679248,5.22448979591837,1.65,3759.95,2.57142857142857,1.06122448979592,3.75285714285714,0.636396103067893,0.263488278
SCN-NC-Zn,0.636666666666667,6.05155573223813,2.56833333333333,0.383085599679248,4.83333333333333,1.65,3759.95,2.5,1,4.01133333333333,0.636396103067893,0.5263062172
SCN-NO-Ba,1.305,6.07086347022545,2.59,0.803211356141508,20.6111111111111,0.89,3768.2,2.83333333333333,1.11111111111111,3.262,1.17379725676967,-0.3294774628
SCN-NO-Be,0.965,10.5825510957313,2.70333333333333,0.582814787035019,5.66666666666667,1.57,3768.2,2.16666666666667,1.11111111111111,3.262,0.692964645562816,0.3284970772
SCN-NO-Ca,1.25,7.00921236053639,2.60833333333333,0.774266459580783,21.1666666666667,1,3768.2,2.5,1.11111111111111,3.262,1.09601551083915,-0.2724989962
SCN-NO-Cd,0.905,5.64667619786329,2.72333333333333,0.534956811865944,5,1.69,3768.2,2.66666666666667,1.11111111111111,3.262,0.608111831820431,0.3786099255
SCN-NO-Co,0.81,5.23341402051028,2.755,0.455779073674793,7.66666666666667,1.88,3768.2,2.5,1.11111111111111,3.262,0.473761543394987,0.3464166422
SCN-NO-Cu,0.8,5.25460216258919,2.75833333333333,0.447277935696606,6.33333333333333,1.9,3768.2,2.5,1.11111111111111,3.262,0.459619407771256,0.4263547372
SCN-NO-Fe,0.835,5.03448165643182,2.74666666666667,0.476922164006862,8.33333333333333,1.83,3768.2,2.5,1.11111111111111,3.262,0.509116882454314,0.3122074655
SCN-NO-Mg,1.095,8.28212148179963,2.66,0.678328679969553,5.44444444444444,1.31,3768.2,2.33333333333333,1.11111111111111,3.262,0.876812408671319,0.0118274838
SCN-NO-Mn,0.975,5.45768072275766,2.7,0.590584603914435,9,1.55,3768.2,2.5,1.11111111111111,3.262,0.707106781186547,0.1157849255
SCN-NO-Ni,0.795,5.29647326785588,2.76,0.443019472906049,7,1.91,3768.2,2.5,1.11111111111111,3.262,0.45254833995939,0.2734856922
SCN-NO-Pb,0.585,5.29647326785588,2.83,0.265103054644222,3.11111111111111,2.33,3768.2,2.83333333333333,0.666666666666667,3.262,0.15556349186104,0.3687339305
SCN-NO-Pd,0.65,4.91681023552169,2.80833333333333,0.319140970908075,6.77777777777778,2.2,3768.2,2.66666666666667,1.11111111111111,3.262,0.247487373415291,0.3662225855
SCN-NO-Pt,0.61,5.19051525482187,2.82166666666667,0.285662686264043,6.55555555555556,2.28,3768.2,2.83333333333333,1.11111111111111,3.262,0.190918830920368,0.4323269572
SCN-NO-Sr,1.275,6.58025934929332,2.6,0.787757332306276,20.8888888888889,0.95,3768.2,2.66666666666667,1.11111111111111,3.262,1.13137084989848,-0.3016060995
SCN-NO-Zn,0.925,5.73660650788116,2.71666666666667,0.551131362113503,5.22222222222222,1.65,3768.2,2.5,1.11111111111111,3.262,0.636396103067893,0.3564314688
SCN-OCN-Ba,1.02833333333333,6.15760181004289,2.58428571428571,0.803211356141508,17.9183673469388,0.89,3768.2,2.71428571428571,1.06122448979592,3.43828571428571,1.17379725676967,-0.5128076896
SCN-OCN-Be,0.801666666666667,10.733750824992,2.68142857142857,0.582814787035019,5.42857142857143,1.57,3768.2,2.14285714285714,1.06122448979592,3.43828571428571,0.692964645562816,0.1099784733
SCN-OCN-Ca,0.991666666666667,7.10935749583099,2.6,0.774266459580783,18.4081632653061,1,3768.2,2.42857142857143,1.06122448979592,3.43828571428571,1.09601551083915,-0.4476953824
SCN-OCN-Cd,0.761666666666667,5.72735390067961,2.69857142857143,0.534956811865944,4.93877551020408,1.69,3768.2,2.57142857142857,1.06122448979592,3.43828571428571,0.608111831820431,0.1464245833
SCN-OCN-Co,0.698333333333333,5.30818718020045,2.72571428571429,0.455779073674793,6.89795918367347,1.88,3768.2,2.42857142857143,1.06122448979592,3.43828571428571,0.473761543394987,0.2069524961
SCN-OCN-Cu,0.691666666666667,5.3296780509236,2.72857142857143,0.447277935696606,5.91836734693878,1.9,3768.2,2.42857142857143,1.06122448979592,3.43828571428571,0.459619407771256,0.3226256504
SCN-OCN-Fe,0.715,5.10641254120001,2.71857142857143,0.476922164006862,7.38775510204082,1.83,3768.2,2.42857142857143,1.06122448979592,3.43828571428571,0.509116882454314,0.2334170104
SCN-OCN-Mg,0.888333333333333,8.40045349025624,2.64428571428571,0.678328679969553,5.26530612244898,1.31,3768.2,2.28571428571429,1.06122448979592,3.43828571428571,0.876812408671319,-0.197627771
SCN-OCN-Mn,0.808333333333333,5.53565812539031,2.67857142857143,0.590584603914435,7.87755102040816,1.55,3768.2,2.42857142857143,1.06122448979592,3.43828571428571,0.707106781186547,-0.0146556253
SCN-OCN-Ni,0.688333333333333,5.37214739566231,2.73,0.443019472906049,6.40816326530612,1.91,3768.2,2.42857142857143,1.06122448979592,3.43828571428571,0.45254833995939,0.1751176876
SCN-OCN-Pb,0.548333333333333,5.37214739566231,2.79,0.265103054644222,3.14285714285714,2.33,3768.2,2.71428571428571,0.73469387755102,3.43828571428571,0.15556349186104,0.1265866276
SCN-OCN-Pd,0.591666666666667,4.98705987284563,2.77142857142857,0.319140970908075,6.24489795918367,2.2,3768.2,2.57142857142857,1.06122448979592,3.43828571428571,0.247487373415291,0.3310408319
SCN-OCN-Pt,0.565,5.26467549219312,2.78285714285714,0.285662686264043,6.08163265306122,2.28,3768.2,2.71428571428571,1.06122448979592,3.43828571428571,0.190918830920368,0.4314342604
SCN-OCN-Sr,1.00833333333333,6.67427575640331,2.59285714285714,0.787757332306276,18.1632653061225,0.95,3768.2,2.57142857142857,1.06122448979592,3.43828571428571,1.13137084989848,-0.481935921
SCN-OCN-Zn,0.775,5.81856910300786,2.69285714285714,0.551131362113503,5.10204081632653,1.65,3768.2,2.42857142857143,1.06122448979592,3.43828571428571,0.636396103067893,0.1552135061
SH-Br-Ba,1.225,6.04061336109903,2.1575,0.657411410756611,31,0.89,985.99,3.5,2.25,2.878,0.926309883354377,-1.5793174967
SH-Br-Be,0.885,10.5298199929727,2.3275,0.383085599679248,9.25,1.57,1545.99,2.5,2.25,2.878,0.445477272147525,-0.6013990793
SH-Br-Ca,1.17,6.97428661400356,2.185,0.617260240551931,31.75,1,1100.99,3,2.25,2.878,0.848528137423857,-1.5410113918
SH-Br-Cd,0.825,5.61853974379465,2.3575,0.331838253983406,8.125,1.69,580.21,3.25,2.25,2.878,0.360624458405139,-0.6262185592
SH-Br-Co,0.73,5.20733678355698,2.405,0.252932696862804,12.625,1.88,1753.99,3,2.25,2.878,0.226274169979695,-0.4025110993
SH-Br-Cu,0.72,5.22841934862643,2.41,0.244896157910976,10.375,1.9,1343.76,3,2.25,2.878,0.212132034355964,-0.2159114443
SH-Br-Fe,0.755,5.00939566656415,2.3925,0.273287979294598,13.75,1.83,1796.99,3,2.25,2.878,0.261629509039023,-0.4090242668
SH-Br-Mg,1.015,8.24085303953413,2.2625,0.493699544326619,8.875,1.31,908.99,2.75,2.25,2.878,0.629325035256027,-1.1402471393
SH-Br-Mn,0.895,5.43048600189953,2.3225,0.39166222482331,14.875,1.55,1504.99,3,2.25,2.878,0.459619407771256,-0.4570487117
SH-Br-Ni,0.715,5.27008181709708,2.4125,0.240902461029019,11.5,1.91,1713.99,3,2.25,2.878,0.205060966544099,-0.5121506067
SH-Br-Pb,0.505,5.27008181709708,2.5175,0.134458537778234,4.5,2.2,586.6,3.5,1.75,2.878,0.091923881554251,-0.5459282268
SH-Br-Pd,0.57,4.89231058289271,2.485,0.134458537778234,11.125,2.2,1814.04,3.25,2.25,2.878,0,-0.2240546418
SH-Br-Pt,0.53,5.16465177532661,2.505,0.134458537778234,10.75,2.2,2027.39,3.5,2.25,2.878,0.056568542494924,-0.0301251043
SH-Br-Sr,1.195,6.54747100470732,2.1725,0.635790125789148,31.375,0.95,1035.99,3.25,2.25,2.878,0.883883476483184,-1.5794113917
SH-Br-Zn,0.845,5.70802194594366,2.3475,0.348856349613711,8.5,1.65,678.67,3,2.25,2.878,0.388908729652601,-0.5934105418
SH-Cl-Ba,1.325,6.27139123620859,2.2075,0.724240177376075,30.875,0.89,985.99,3.25,2.25,3.137,0.926309883354377,-1.6677325968
SH-Cl-Be,0.985,10.9321052143566,2.3775,0.468485606147228,9.125,1.57,1545.99,2.25,2.25,3.137,0.445477272147525,-0.7170559918
SH-Cl-Ca,1.27,7.24073489482714,2.235,0.688513724152593,31.625,1,1100.99,2.75,2.25,3.137,0.848528137423857,-1.6394093043
SH-Cl-Cd,0.925,5.83319255896103,2.4075,0.417382851233086,8,1.69,580.21,3,2.25,3.137,0.360624458405139,-0.6824863468
SH-Cl-Co,0.83,5.4062798454699,2.455,0.336084236664527,12.5,1.88,1753.99,2.75,2.25,3.137,0.226274169979695,-0.4881843818
SH-Cl-Cu,0.82,5.42816785682067,2.46,0.327598737602997,10.25,1.9,1343.76,2.75,2.25,3.137,0.212132034355964,-0.2532794692
SH-Cl-Fe,0.855,5.20077651125744,2.4425,0.357394966944066,13.625,1.83,1796.99,2.75,2.25,3.137,0.261629509039023,-0.5190305018
SH-Cl-Mg,1.115,8.5556897026123,2.3125,0.574982527866331,8.75,1.31,908.99,2.5,2.25,3.137,0.629325035256027,-1.2432067818
SH-Cl-Mn,0.995,5.63795434086016,2.3725,0.476922164006862,14.75,1.55,1504.99,2.75,2.25,3.137,0.459619407771256,-0.5270481042
SH-Cl-Ni,0.815,5.47142201397767,2.4625,0.323366153838271,11.375,1.91,1713.99,2.75,2.25,3.137,0.205060966544099,-0.5963701967
SH-Cl-Pb,0.605,5.47142201397767,2.5675,0.205784147383453,4.25,2.2,586.6,3.25,1.75,3.137,0.091923881554251,-0.6056053817
SH-Cl-Pd,0.67,5.07921826481238,2.535,0.205784147383453,11,2.2,1814.04,3,2.25,3.137,0,-0.2160787017
SH-Cl-Pt,0.63,5.36196408305786,2.555,0.205784147383453,10.625,2.2,2027.39,3.25,2.25,3.137,0.056568542494924,-0.0682120742
SH-Cl-Sr,1.295,6.79761306073404,2.2225,0.705072288961961,31.25,0.95,1035.99,3,2.25,3.137,0.883883476483184,-1.6729260718
SH-Cl-Zn,0.945,5.92609337296908,2.3975,0.434488699259705,8.375,1.65,678.67,2.75,2.25,3.137,0.388908729652601,-0.6666621893
SH-CN-Ba,0.93,6.52764556578793,2.252,0.685139312535294,24.24,0.89,3808.99,2.8,1.44,4.1976,0.875042856093346,-0.5851290874
SH-CN-Be,0.703333333333333,11.37880024375,2.388,0.417382851233086,7.36,1.57,3808.99,2,1.44,4.1976,0.496621921921831,0.2342844886
SH-CN-Ca,0.893333333333333,7.53659742297288,2.274,0.646686671641399,24.88,1,3808.99,2.4,1.44,4.1976,0.812916559883813,-0.5284619714
SH-CN-Cd,0.663333333333333,6.07154172140421,2.412,0.365948438141932,6.64,1.69,3808.99,2.6,1.44,4.1976,0.432473505932252,0.2264317686
SH-CN-Co,0.6,5.62718499476446,2.45,0.285662686264043,9.52,1.88,3808.99,2.4,1.44,4.1976,0.335111921602321,0.3518144506
SH-CN-Cu,0.593333333333333,5.64996736869973,2.454,0.277400390009806,8.08,1.9,3808.99,2.4,1.44,4.1976,0.325320354932386,0.5318749486
SH-CN-Fe,0.616666666666667,5.41328462117884,2.44,0.306514536143557,10.24,1.83,3808.99,2.4,1.44,4.1976,0.360046293319808,0.3373101006
SH-CN-Mg,0.79,8.90528239205792,2.336,0.526794252062466,7.12,1.31,3808.99,2.2,1.44,4.1976,0.639296488336984,-0.1895425914
SH-CN-Mn,0.71,5.86832590522289,2.384,0.425942090430698,10.96,1.55,3808.99,2.4,1.44,4.1976,0.507444578254611,0.3007453006
SH-CN-Ni,0.59,5.69498892715995,2.456,0.273287979294598,8.8,1.91,3808.99,2.4,1.44,4.1976,0.320468407179241,0.3027628646
SH-CN-Pb,0.45,5.69498892715995,2.54,0.161717396775766,4.8,2.2,3808.99,2.8,1.04,4.1976,0.176918060129541,0.2466825006
SH-CN-Pd,0.493333333333333,5.28675940237081,2.514,0.161717396775766,8.56,2.2,3808.99,2.6,1.44,4.1976,0.202072594216369,0.5185472206
SH-CN-Pt,0.466666666666667,5.58105845296408,2.53,0.161717396775766,8.32,2.2,3808.99,2.8,1.44,4.1976,0.183393929379719,0.5937141106
SH-CN-Sr,0.91,7.07536925740713,2.264,0.664463655809218,24.56,0.95,3808.99,2.6,1.44,4.1976,0.841130192063036,-0.5714652334
SH-CN-Zn,0.676666666666667,6.16823854094186,2.404,0.383085599679248,6.88,1.65,3808.99,2.4,1.44,4.1976,0.453688586293873,0.2544791106
SH-F-Ba,1.735,7.16193907303545,2.4125,0.908097311920564,30.75,0.89,985.99,3,2.25,3.00625,0.926309883354377,-2.0343182592
SH-F-Be,1.395,12.48448207683,2.5825,0.76590423612167,9,1.57,1545.99,2,2.25,3.00625,0.445477272147525,-1.0617557018
SH-F-Ca,1.68,8.26893112031464,2.44,0.891401751542897,31.5,1,1100.99,2.5,2.25,3.00625,0.848528137423857,-2.0378090543
SH-F-Cd,1.335,6.66151546523817,2.6125,0.730456367481674,7.875,1.69,580.21,2.75,2.25,3.00625,0.360624458405139,-0.9487802143
SH-F-Co,1.24,6.17398044655289,2.66,0.667960054655339,12.375,1.88,1753.99,2.5,2.25,3.00625,0.226274169979695,-0.7942420143
SH-F-Cu,1.23,6.19897659139854,2.665,0.660947392745558,10.125,1.9,1343.76,2.5,2.25,3.00625,0.212132034355964,-0.5662441418
SH-F-Fe,1.265,5.93929530198119,2.6475,0.685139312535294,13.5,1.83,1796.99,2.5,2.25,3.00625,0.261629509039023,-0.8183043618
SH-F-Mg,1.525,9.77061166653518,2.5175,0.831736655486387,8.625,1.31,908.99,2.25,2.25,3.00625,0.629325035256027,-1.6143130467
SH-F-Mn,1.405,6.43855310009448,2.5775,0.77150135530994,14.625,1.55,1504.99,2.5,2.25,3.00625,0.459619407771256,-0.8445411368
SH-F-Ni,1.225,6.24837290978248,2.6675,0.657411410756611,11.25,1.91,1713.99,2.5,2.25,3.00625,0.205060966544099,-0.8784244893
SH-F-Pb,1.015,6.24837290978248,2.7725,0.547107278760105,4,2.2,586.6,3,1.75,3.00625,0.091923881554251,-0.9793137818
SH-F-Pd,1.08,5.80047558525899,2.74,0.547107278760105,10.875,2.2,1814.04,2.75,2.25,3.00625,0,-0.5089727243
SH-F-Pt,1.04,6.12337177322731,2.76,0.547107278760105,10.5,2.2,2027.39,3,2.25,3.00625,0.056568542494924,-0.3803943392
SH-F-Sr,1.705,7.76288525932876,2.4275,0.89926127549485,31.125,0.95,1035.99,2.75,2.25,3.00625,0.883883476483184,-2.0566348868
SH-F-Zn,1.355,6.76760834713645,2.6025,0.742626000251458,8.25,1.65,678.67,2.5,2.25,3.00625,0.388908729652601,-0.9475125192
SH-I-Ba,1.075,5.79071045637978,2.0825,0.543069966787304,31.125,0.89,985.99,3.75,2.25,2.77925,0.926309883354377,-1.3771533393
SH-I-Be,0.735,10.0941965810588,2.2525,0.25697456350617,9.375,1.57,1545.99,2.75,2.25,2.77925,0.445477272147525,-0.3176282393
SH-I-Ca,1.02,6.68575722485111,2.11,0.497871893693153,31.875,1,1100.99,3.25,2.25,2.77925,0.848528137423857,-1.3221128092
SH-I-Cd,0.675,5.38609821537354,2.2825,0.209607008802607,8.25,1.69,580.21,3.5,2.25,2.77925,0.360624458405139,-0.4476535867
SH-I-Co,0.58,4.99190690743833,2.33,0.141097613792152,12.75,1.88,1753.99,3.25,2.25,2.77925,0.226274169979695,-0.2010142967
SH-I-Cu,0.57,5.01211727726287,2.335,0.134458537778234,10.5,1.9,1343.76,3.25,2.25,2.77925,0.212132034355964,-0.0555994242
SH-I-Fe,0.605,4.8021547039122,2.3175,0.158210250834464,13.875,1.83,1796.99,3.25,2.25,2.77925,0.261629509039023,-0.1621933668
SH-I-Mg,0.865,7.89992522495053,2.1875,0.365948438141932,9,1.31,908.99,3,2.25,2.77925,0.629325035256027,-0.8982343867
SH-I-Mn,0.745,5.20582434176888,2.2475,0.265103054644222,15,1.55,1504.99,3.25,2.25,2.77925,0.459619407771256,-0.5375610292
SH-I-Ni,0.565,5.05205615058413,2.3375,0.131184943737157,11.625,1.91,1713.99,3.25,2.25,2.77925,0.205060966544099,-0.2928753617
SH-I-Pb,0.355,5.05205615058413,2.4425,0.051525144774396,4.75,2.2,586.6,3.75,1.75,2.77925,0.091923881554251,-0.3940723942
SH-I-Pd,0.42,4.68991348306721,2.41,0.051525144774396,11.25,2.2,1814.04,3.5,2.25,2.77925,0,-0.0637734692
SH-I-Pt,0.38,4.95098779728933,2.43,0.051525144774396,10.875,2.2,2027.39,3.75,2.25,2.77925,0.056568542494924,0.0704768333
SH-I-Sr,1.045,6.27659917020478,2.0975,0.518584713558295,31.5,0.95,1035.99,3.5,2.25,2.77925,0.883883476483184,-1.3679575068
SH-I-Zn,0.695,5.47187849837942,2.2725,0.225102874709209,8.625,1.65,678.67,3.25,2.25,2.77925,0.388908729652601,-0.3778937818