Compound,mean EN difference,geom-mean_eta_both,MagpieData mean Electronegativity,max ionic char,MagpieData avg_dev MendeleevNumber,MagpieData minimum Electronegativity,MagpieData range MeltingT,MagpieData mean Row,MagpieData avg_dev NpValence,MagpieData mean GSbandgap,std_dev EN difference,Formation_energy
NH-Se-Tc,0.745,5.0530876781251,2.4225,0.277400390009806,13,1.9,2415.99,3,1.75,3.77225,0.212132034355964,-0.0950872525
NH-Se-Te,0.645,4.76008567978912,2.4725,0.198203144033059,3.125,2.1,708.65,3,1.375,3.88825,0.070710678118655,0.2463751675
NH-Se-Ti,0.925,6.55953199120027,2.3325,0.430217175269077,16.75,1.54,1926.99,2.75,1.75,3.77225,0.466690475583121,-0.9637083825
NH-Se-W,0.515,3.81306674366071,2.5375,0.161717396775766,13.75,2.2,3680.99,3.25,1.75,3.77225,0.113137084989847,-0.1761299225
NH-Se-Zr,1.03,6.14322076706082,2.28,0.518584713558295,16.375,1.33,2113.99,3,1.75,3.77225,0.615182899632296,-1.12385314
NH-Te-Ce,0.91,6.92279793747556,2.115,0.602118079548795,27.375,1.12,1056.99,3.5,1.75,3.6885,0.763675323681471,-0.9862064
NH-Te-Ge,0.465,8.19646883454018,2.3375,0.232966651944445,5.25,2.01,1197.39,3,1.25,3.78425,0.134350288425444,0.161649585
NH-Te-Hf,0.82,8.64065838604233,2.16,0.530881557605336,16.125,1.3,2491.99,3.5,1.75,3.6885,0.636396103067893,-0.888389715
NH-Te-Ir,0.37,7.49855972343149,2.385,0.198203144033059,10.5,2.1,2724.99,3.5,1.75,3.6885,0,0.20071184
NH-Te-Mo,0.39,5.49462836425599,2.375,0.198203144033059,14.25,2.1,2881.99,3.25,1.75,3.6885,0.028284271247462,-0.1193665625
NH-Te-Os,0.37,5.39093128064427,2.385,0.198203144033059,11.625,2.1,3291.99,3.5,1.75,3.6885,0,0.29724993
NH-Te-Pd,0.37,5.82988930489748,2.385,0.198203144033059,9.75,2.1,1814.04,3.25,1.75,3.6885,0,0.2068867475
NH-Te-Pt,0.33,5.85239875328798,2.405,0.198203144033059,9.375,2.1,2027.39,3.5,1.75,3.6885,0.056568542494924,0.0775556625
NH-Te-Re,0.52,6.23099292222133,2.31,0.277400390009806,12.75,1.9,3444.99,3.5,1.75,3.6885,0.212132034355964,0.1799060075
NH-Te-Ru,0.37,5.80720468129901,2.385,0.198203144033059,12,2.1,2592.99,3.25,1.75,3.6885,0,0.037667495
NH-Te-Sn,0.49,7.49855972343149,2.325,0.252932696862804,5,1.96,708.65,3.25,1.25,3.6885,0.169705627484772,0.10627359
NH-Te-Tc,0.52,6.65626823376609,2.31,0.277400390009806,13.125,1.9,2415.99,3.25,1.75,3.6885,0.212132034355964,-0.02104496
NH-Te-Ti,0.7,8.64065838604233,2.22,0.430217175269077,16.875,1.54,1926.99,3,1.75,3.6885,0.466690475583121,-0.7922603375
NH-Te-W,0.29,5.02282894257557,2.425,0.198203144033059,13.875,2.1,3680.99,3.5,1.75,3.6885,0.113137084989847,0.0198143875
NH-Te-Zr,0.805,8.09226513559553,2.1675,0.518584713558295,16.5,1.33,2113.99,3.25,1.75,3.6885,0.615182899632296,-0.916401295
O-S-Ce,1.89,6.15211111342572,2.38,0.739616569076971,32.2222222222222,1.12,1016.2,3.66666666666667,1.77777777777778,0.734,0,-2.641221469
O-S-Ge,1,7.28398943075467,2.67666666666667,0.400239577896362,3.77777777777778,2.01,1156.6,3,0.888888888888889,0.861666666666667,0,-0.6455707657
O-S-Hf,1.71,7.67872917340567,2.44,0.681744258226629,18.8888888888889,1.3,2451.2,3.66666666666667,1.77777777777778,0.734,0,-2.6051908757
O-S-Ir,0.81,6.66377569096458,2.74,0.319140970908075,12.2222222222222,2.2,2684.2,3.66666666666667,1.77777777777778,0.734,0,-0.3310422457
O-S-Mo,0.85,4.88293382663862,2.72666666666667,0.336084236664526,16.6666666666667,2.16,2841.2,3.33333333333333,1.77777777777778,0.734,0,-1.102596939
O-S-Os,0.81,4.79078091588211,2.74,0.319140970908075,13.5555555555556,2.2,3251.2,3.66666666666667,1.77777777777778,0.734,0,-0.145066659
O-S-Pd,0.81,5.18087153584903,2.74,0.319140970908075,11.3333333333333,2.2,1773.25,3.33333333333333,1.77777777777778,0.734,0,-0.274654709
O-S-Pt,0.73,5.20087509927108,2.76666666666667,0.285662686264043,10.8888888888889,2.28,1986.6,3.66666666666667,1.77777777777778,0.734,0,-0.4869043857
O-S-Re,1.11,5.53732192542564,2.64,0.447277935696606,14.8888888888889,1.9,3404.2,3.66666666666667,1.77777777777778,0.734,0,-0.4958741123
O-S-Ru,0.81,5.16071229875957,2.74,0.319140970908075,14,2.2,2552.2,3.33333333333333,1.77777777777778,0.734,0,-0.430935109
O-S-Sn,1.05,6.66377569096458,2.66,0.421663847129056,3.33333333333333,1.96,450.28,3.33333333333333,0.888888888888889,0.734,0,-0.862800049
O-S-Tc,1.11,5.91525307321445,2.64,0.447277935696606,15.3333333333333,1.9,2375.2,3.33333333333333,1.77777777777778,0.734,0,-0.7194418457
O-S-Te,0.91,5.57225863466198,2.70666666666667,0.361670071504925,1.11111111111111,2.1,667.86,3.33333333333333,0,0.888666666666667,0,-0.3503462623
O-S-Ti,1.47,7.67872917340567,2.52,0.594445494936679,19.7777777777778,1.54,1886.2,3,1.77777777777778,0.734,0,-2.295897489
O-S-W,0.65,4.46365790790706,2.79333333333333,0.252932696862804,16.2222222222222,2.36,3640.2,3.66666666666667,1.77777777777778,0.734,0,-1.021008759
O-S-Zr,1.68,7.19138630408141,2.45,0.671436448466081,19.3333333333333,1.33,2073.2,3.33333333333333,1.77777777777778,0.734,0,-2.578260879
O-Se-Ce,1.875,5.82423470454533,2.37,0.739616569076971,32.4444444444444,1.12,1016.2,4,1.77777777777778,0.266333333333333,0,-2.53530469
O-Se-Ge,0.985,6.89578963188129,2.66666666666667,0.400239577896362,4,2.01,1156.6,3.33333333333333,0.888888888888889,0.394,0,-0.4106181467
O-Se-Hf,1.695,7.26949174259155,2.43,0.681744258226629,19.1111111111111,1.3,2451.2,4,1.77777777777778,0.266333333333333,0,-2.4074269867
O-Se-Ir,0.795,6.30863014777538,2.73,0.319140970908075,12.4444444444444,2.2,2684.2,4,1.77777777777778,0.266333333333333,0,-0.1917906
O-Se-Mo,0.835,4.62269814845248,2.71666666666667,0.336084236664526,16.8888888888889,2.16,2841.2,3.66666666666667,1.77777777777778,0.266333333333333,0,-0.9518615467
O-Se-Os,0.795,4.53545652178848,2.73,0.319140970908075,13.7777777777778,2.2,3251.2,4,1.77777777777778,0.266333333333333,0,0.0105895033
O-Se-Pd,0.795,4.90475728454141,2.73,0.319140970908075,11.5555555555556,2.2,1773.25,3.66666666666667,1.77777777777778,0.266333333333333,0,-0.1897948733
O-Se-Pt,0.715,4.92369475919837,2.75666666666667,0.285662686264043,11.1111111111111,2.28,1986.6,4,1.77777777777778,0.266333333333333,0,-0.3585616967
O-Se-Re,1.095,5.24221067105296,2.63,0.447277935696606,15.1111111111111,1.9,3404.2,4,1.77777777777778,0.266333333333333,0,-0.3237321667
O-Se-Ru,0.795,4.88567243283622,2.73,0.319140970908075,14.2222222222222,2.2,2552.2,3.66666666666667,1.77777777777778,0.266333333333333,0,-0.3448092433
O-Se-Sn,1.035,6.30863014777538,2.65,0.421663847129056,3.55555555555556,1.96,450.28,3.66666666666667,0.888888888888889,0.266333333333333,0,-0.6982938
O-Se-Tc,1.095,5.6,2.63,0.447277935696606,15.5555555555556,1.9,2375.2,3.66666666666667,1.77777777777778,0.266333333333333,0,-0.61463672
O-Se-Te,0.895,5.27528543037465,2.69666666666667,0.361670071504925,1.11111111111111,2.1,667.86,3.66666666666667,0,0.421,0,-0.36209128
O-Se-Ti,1.455,7.26949174259155,2.51,0.594445494936679,20,1.54,1886.2,3.33333333333333,1.77777777777778,0.266333333333333,0,-2.15490848
O-Se-W,0.635,4.22576751575838,2.78333333333333,0.252932696862804,16.4444444444444,2.36,3640.2,4,1.77777777777778,0.266333333333333,0,-0.8145900833
O-Se-Zr,1.665,6.80812178353199,2.44,0.671436448466081,19.5555555555556,1.33,2073.2,3.66666666666667,1.77777777777778,0.266333333333333,0,-2.4138106467
O-Te-Ce,1.65,7.67207515865775,2.22,0.739616569076971,32.6666666666667,1.12,1016.2,4.33333333333333,1.77777777777778,0.154666666666667,0,-2.3235229067
O-Te-Ge,0.76,9.08359965177882,2.51666666666667,0.400239577896362,4.22222222222222,2.01,1156.6,3.66666666666667,0.888888888888889,0.282333333333333,0,-0.4682208633
O-Te-Hf,1.47,9.5758653013895,2.28,0.681744258226629,19.3333333333333,1.3,2451.2,4.33333333333333,1.77777777777778,0.154666666666667,0,-2.03014687
O-Te-Ir,0.57,8.31015353899362,2.58,0.361670071504925,12.6666666666667,2.1,2684.2,4.33333333333333,1.77777777777778,0.154666666666667,0,-0.0366691833
O-Te-Mo,0.61,6.0893300888162,2.56666666666667,0.361670071504925,17.1111111111111,2.1,2841.2,4,1.77777777777778,0.154666666666667,0,-0.7472781533
O-Te-Os,0.57,5.97440952831622,2.58,0.361670071504925,14,2.1,3251.2,4.33333333333333,1.77777777777778,0.154666666666667,0,0.0712234933
O-Te-Pd,0.57,6.46087742525365,2.58,0.361670071504925,11.7777777777778,2.1,1773.25,4,1.77777777777778,0.154666666666667,0,-0.13461445
O-Te-Pt,0.49,6.48582314537889,2.60666666666667,0.361670071504925,11.3333333333333,2.1,1986.6,4.33333333333333,1.77777777777778,0.154666666666667,0,-0.2414409533
O-Te-Re,0.87,6.90539380812532,2.48,0.447277935696606,15.3333333333333,1.9,3404.2,4.33333333333333,1.77777777777778,0.154666666666667,0,-0.1189836467
O-Te-Ru,0.57,6.43573757013074,2.58,0.361670071504925,14.4444444444444,2.1,2552.2,4,1.77777777777778,0.154666666666667,0,-0.36393839
O-Te-Sn,0.81,8.31015353899362,2.5,0.421663847129056,3.77777777777778,1.96,667.86,4,0.888888888888889,0.154666666666667,0,-0.5217863467
O-Te-Tc,0.87,7.37669806729352,2.48,0.447277935696606,15.7777777777778,1.9,2375.2,4,1.77777777777778,0.154666666666667,0,-0.5246600333
O-Te-Ti,1.23,9.5758653013895,2.36,0.594445494936679,20.2222222222222,1.54,1886.2,3.66666666666667,1.77777777777778,0.154666666666667,0,-1.8982968467
O-Te-W,0.41,5.56646626184403,2.63333333333333,0.361670071504925,16.6666666666667,2.1,3640.2,4.33333333333333,1.77777777777778,0.154666666666667,0,-0.5356441467
O-Te-Zr,1.44,8.96811764329988,2.29,0.671436448466081,19.7777777777778,1.33,2073.2,4,1.77777777777778,0.154666666666667,0,-2.0975198033
PH-O-Ce,1.155,5.37436408557579,2.2375,0.739616569076971,27.125,1.12,1056.99,3,1.75,2.3695,0.763675323681471,-1.4962884725
PH-O-Ge,0.71,6.36315087205295,2.46,0.400239577896362,4.25,2.01,1197.39,2.5,1.25,2.46525,0.134350288425444,-0.0051595425
PH-O-Hf,1.065,6.7079877998879,2.2825,0.681744258226629,15.875,1.3,2491.99,3,1.75,2.3695,0.636396103067893,-1.440424055
PH-O-Ir,0.615,5.82134426501129,2.5075,0.323366153838271,10.25,2.19,2724.99,3,1.75,2.3695,0,-0.2450832975
PH-O-Mo,0.635,4.26563560155156,2.4975,0.336084236664526,14,2.16,2881.99,2.75,1.75,2.3695,0.028284271247462,-0.620372245
PH-O-Os,0.423333333333333,4.18513261894609,2.5075,0.323366153838271,11.375,2.19,3291.99,3,1.75,2.3695,0,-0.0215712475
PH-O-Pd,0.615,4.52590816402606,2.5075,0.323366153838271,9.5,2.19,1814.04,2.75,1.75,2.3695,0,-0.174010295
PH-O-Pt,0.45,4.54338288625667,2.5275,0.323366153838271,9.125,2.19,2027.39,3,1.75,2.3695,0,-0.4103924475
PH-O-Re,0.765,4.83729626100783,2.4325,0.447277935696606,12.5,1.9,3444.99,3,1.75,2.3695,0.212132034355964,-0.1607588175
PH-O-Ru,0.615,4.50829744832072,2.5075,0.323366153838271,11.75,2.19,2592.99,2.75,1.75,2.3695,0,-0.22486909
PH-O-Sn,0.735,5.82134426501129,2.4475,0.421663847129056,4,1.96,491.07,2.75,1.25,2.3695,0.169705627484772,-0.143978595
PH-O-Tc,0.765,5.1674495287315,2.4325,0.447277935696606,12.875,1.9,2415.99,2.75,1.75,2.3695,0.212132034355964,-0.342851455
PH-O-Te,0.39,4.86781628769887,2.4825,0.361670071504925,3,2.1,708.65,2.75,1.375,2.4855,0,0.00454148
PH-O-Ti,0.945,6.7079877998879,2.3425,0.594445494936679,16.625,1.54,1926.99,2.5,1.75,2.3695,0.466690475583121,-1.338692635
PH-O-W,0.535,3.89936434961331,2.5475,0.323366153838271,13.625,2.19,3680.99,3,1.75,2.3695,0.113137084989847,-0.525166975
PH-O-Zr,1.05,6.28225458961769,2.29,0.671436448466081,16.25,1.33,2113.99,2.75,1.75,2.3695,0.615182899632296,-1.44969709
PH-S-Ce,0.725,4.71085464632381,2.0225,0.413099512040662,27.25,1.12,1056.99,3.25,1.75,2.92,0.763675323681471,-0.9401846193
PH-S-Ge,0.28,5.57756757331013,2.245,0.07801377879469,4.5,2.01,1197.39,2.75,1.25,3.01575,0.134350288425444,0.1081347358
PH-S-Hf,0.635,5.8798315468424,2.0675,0.336084236664527,16,1.3,2491.99,3.25,1.75,2.92,0.636396103067893,-0.8801593743
PH-S-Ir,0.185,5.10265144713226,2.2925,0.037311126631478,10.375,2.19,2724.99,3.25,1.75,2.92,0,-0.2424678143
PH-S-Mo,0.205,3.73900781062185,2.2825,0.04314173313809,14.125,2.16,2881.99,3,1.75,2.92,0.028284271247462,-0.3037461743
PH-S-Os,0.136666666666667,3.66844358318744,2.2925,0.037311126631478,11.5,2.19,3291.99,3.25,1.75,2.92,0,0.0410272832
PH-S-Pd,0.185,3.9671475850622,2.2925,0.037311126631478,9.625,2.19,1814.04,3,1.75,2.92,0,-0.1656124618
PH-S-Pt,0.163333333333334,3.98246490914046,2.3125,0.037311126631478,9.25,2.19,2027.39,3.25,1.75,2.92,0,-0.4382892742
PH-S-Re,0.335,4.2400922609567,2.2175,0.109168515365691,12.625,1.9,3444.99,3.25,1.75,2.92,0.212132034355964,0.0388630757
PH-S-Ru,0.185,3.95171105702194,2.2925,0.037311126631478,11.875,2.19,2592.99,3,1.75,2.92,0,-0.0813564242
PH-S-Sn,0.305,5.10265144713226,2.2325,0.091626825790732,4.25,1.96,491.07,3,1.25,2.92,0.169705627484772,-0.0235869892
PH-S-Tc,0.335,4.52948539296079,2.2175,0.109168515365691,13,1.9,2415.99,3,1.75,2.92,0.212132034355964,-0.1340203218
PH-S-Te,0.103333333333334,4.26684433938944,2.2675,0.055972517082164,2.75,2.1,708.65,3,1.375,3.036,0,0.2625960857
PH-S-Ti,0.515,5.8798315468424,2.1275,0.236925796398664,16.75,1.54,1926.99,2.75,1.75,2.92,0.466690475583121,-0.7626531267
PH-S-W,0.105,3.41795575654924,2.3325,0.037311126631478,13.75,2.19,3680.99,3.25,1.75,2.92,0.113137084989847,-0.2097600418
PH-S-Zr,0.62,5.50665860214398,2.075,0.323366153838271,16.375,1.33,2113.99,3,1.75,2.92,0.615182899632296,-0.8984430992
PH-Se-Ce,0.71,4.4597899181814,2.015,0.400239577896362,27.375,1.12,1056.99,3.5,1.75,2.56925,0.763675323681471,-0.8683556025
PH-Se-Ge,0.265,5.28031142944209,2.2375,0.070306205243046,4.75,2.01,1197.39,3,1.25,2.665,0.134350288425444,0.116589355
PH-Se-Hf,0.62,5.56646626184403,2.06,0.323366153838271,16.125,1.3,2491.99,3.5,1.75,2.56925,0.636396103067893,-0.77281906
PH-Se-Ir,0.17,4.83070593096578,2.285,0.031880743083437,10.5,2.19,2724.99,3.5,1.75,2.56925,0,-0.257590865
PH-Se-Mo,0.19,3.53973760383916,2.275,0.037311126631477,14.25,2.16,2881.99,3.25,1.75,2.56925,0.028284271247462,-0.23319232
PH-Se-Os,0.126666666666667,3.47293409285802,2.285,0.031880743083437,11.625,2.19,3291.99,3.5,1.75,2.56925,0,0.0796111925
PH-Se-Pd,0.17,3.75571868208772,2.285,0.031880743083437,9.75,2.19,1814.04,3.25,1.75,2.56925,0,-0.1796348375
PH-Se-Pt,0.153333333333333,3.77021967025789,2.305,0.031880743083437,9.375,2.19,2027.39,3.5,1.75,2.56925,0,-0.439436255
PH-Se-Re,0.32,4.01411678713762,2.21,0.100238004432346,12.75,1.9,3444.99,3.5,1.75,2.56925,0.212132034355964,0.051527505
PH-Se-Ru,0.17,3.74110484292386,2.285,0.031880743083437,12,2.19,2592.99,3.25,1.75,2.56925,0,-0.08951882
PH-Se-Sn,0.29,4.83070593096578,2.225,0.083345821007779,4.5,1.96,491.07,3.25,1.25,2.56925,0.169705627484772,-0.0251702525
PH-Se-Tc,0.32,4.28808672877229,2.21,0.100238004432346,13.125,1.9,2415.99,3.25,1.75,2.56925,0.212132034355964,-0.1149580725
PH-Se-Te,0.093333333333334,4.03944311508489,2.26,0.049364908141302,2.75,2.1,708.65,3.25,1.375,2.68525,0,0.2290282975
PH-Se-Ti,0.5,5.56646626184403,2.12,0.225102874709209,16.875,1.54,1926.99,3,1.75,2.56925,0.466690475583121,-0.6630781075
PH-Se-W,0.09,3.23579600057153,2.325,0.031880743083437,13.875,2.19,3680.99,3.5,1.75,2.56925,0.113137084989847,-0.1182081
PH-Se-Zr,0.605,5.21318154782662,2.0675,0.310714689453374,16.5,1.33,2113.99,3.25,1.75,2.56925,0.615182899632296,-0.8005044475
PH-Te-Ce,0.485,5.87473636963997,1.9025,0.252932696862804,27.5,1.12,1056.99,3.75,1.75,2.4855,0.763675323681471,-0.718656955
PH-Te-Ge,0.04,6.95558269933452,2.125,0.008984396926888,5,2.01,1197.39,3.25,1.25,2.58125,0.134350288425444,0.180263595
PH-Te-Hf,0.395,7.33252516346418,1.9475,0.183313517401889,16.25,1.3,2491.99,3.75,1.75,2.4855,0.636396103067893,-0.5817905875
PH-Te-Ir,-0.055,6.36333198296761,2.1725,0.00249687760254,10.625,2.1,2724.99,3.75,1.75,2.4855,0,-0.32528566
PH-Te-Mo,-0.035,4.66278134660117,2.1625,0.00249687760254,14.375,2.1,2881.99,3.5,1.75,2.4855,0.028284271247462,-0.1506519375
PH-Te-Os,-0.023333333333333,4.57478325189705,2.1725,0.00249687760254,11.75,2.1,3291.99,3.75,1.75,2.4855,0,0.0344504775
PH-Te-Pd,-0.055,4.94728620418833,2.1725,0.00249687760254,9.875,2.1,1814.04,3.5,1.75,2.4855,0,-0.18303899
PH-Te-Pt,0.003333333333333,4.96638788479703,2.1925,0.008067283394429,9.5,2.1,2027.39,3.75,1.75,2.4855,0,-0.4182538925
PH-Te-Re,0.095,5.28766563313724,2.0975,0.022248762806664,12.875,1.9,3444.99,3.75,1.75,2.4855,0.212132034355964,0.05860085
PH-Te-Ru,-0.055,4.92803586863194,2.1725,0.00249687760254,12.125,2.1,2592.99,3.5,1.75,2.4855,0,-0.180761565
PH-Te-Sn,0.065,6.36333198296761,2.1125,0.014296815877557,4.75,1.96,708.65,3.5,1.25,2.4855,0.169705627484772,0.0528502275
PH-Te-Tc,-0.123333333333333,5.6485573365217,2.0975,0.022248762806664,13.25,1.9,2415.99,3.5,1.75,2.4855,0,-0.12999044
PH-Te-Ti,0.275,7.33252516346418,2.0075,0.103179904976213,17,1.54,1926.99,3.25,1.75,2.4855,0.466690475583121,-0.5044765425
PH-Te-W,-0.135,4.26240894706644,2.2125,0.016757996080745,14,2.1,3680.99,3.75,1.75,2.4855,0.113137084989847,0.005264625
PH-Te-Zr,0.38,6.86715468719694,1.955,0.172399724317498,16.625,1.33,2113.99,3.5,1.75,2.4855,0.615182899632296,-0.623019655
S-Se-Ce,1.445,5.10518503813801,2.08333333333333,0.413099512040662,32.6666666666667,1.12,682.64,4.33333333333333,1.77777777777778,1.00033333333333,0,-1.7993271557
S-Se-Ge,0.555,6.04444769839951,2.38,0.07801377879469,4.22222222222222,2.01,823.04,3.66666666666667,0.888888888888889,1.128,0,-0.144286619
S-Se-Hf,1.265,6.37201321062546,2.14333333333333,0.336084236664527,19.3333333333333,1.3,2117.64,4.33333333333333,1.77777777777778,1.00033333333333,0,-1.615717119
S-Se-Ir,0.365,5.52977788076338,2.44333333333333,0.035456165723185,12.6666666666667,2.2,2350.64,4.33333333333333,1.77777777777778,1.00033333333333,0,-0.2597631657
S-Se-Mo,0.405,4.05198805001629,2.43,0.04314173313809,17.1111111111111,2.16,2507.64,4,1.77777777777778,1.00033333333333,0,-0.5190630157
S-Se-Os,0.365,3.97551711954361,2.44333333333333,0.035456165723185,14,2.2,2917.64,4.33333333333333,1.77777777777778,1.00033333333333,0,0.033922811
S-Se-Pd,0.365,4.29922466640945,2.44333333333333,0.035456165723185,11.7777777777778,2.2,1439.69,4,1.77777777777778,1.00033333333333,0,-0.2544733557
S-Se-Pt,0.285,4.31582415409893,2.47,0.022248762806664,11.3333333333333,2.28,1653.04,4.33333333333333,1.77777777777778,1.00033333333333,0,-0.4984553857
S-Se-Re,0.665,4.59501665750885,2.34333333333333,0.109168515365691,15.3333333333333,1.9,3070.64,4.33333333333333,1.77777777777778,1.00033333333333,0,-0.0660298723
S-Se-Ru,0.365,4.28249599658019,2.44333333333333,0.035456165723185,14.4444444444444,2.2,2218.64,4,1.77777777777778,1.00033333333333,0,-0.1843583957
S-Se-Sn,0.605,5.52977788076338,2.36333333333333,0.091626825790732,3.77777777777778,1.96,116.72,4,0.888888888888889,1.00033333333333,0,-0.3881309857
S-Se-Tc,0.665,4.90863395172957,2.34333333333333,0.109168515365691,15.7777777777778,1.9,2041.64,4,1.77777777777778,1.00033333333333,0,-0.309412489
S-Se-Te,0.465,4.62400806582167,2.41,0.055972517082164,0.666666666666667,2.1,334.3,4,0,1.155,0,-0.0341413257
S-Se-Ti,1.025,6.37201321062546,2.22333333333333,0.236925796398664,20.2222222222222,1.54,1552.64,3.66666666666667,1.77777777777778,1.00033333333333,0,-1.3661053523
S-Se-W,0.205,3.70406176785134,2.49666666666667,0.012027089369162,16.6666666666667,2.36,3306.64,4.33333333333333,1.77777777777778,1.00033333333333,0,-0.3930940657
S-Se-Zr,1.235,5.96760316681336,2.15333333333333,0.323366153838271,19.7777777777778,1.33,1739.64,4,1.77777777777778,1.00033333333333,0,-1.6453832423
S-Te-Ce,1.22,6.72489439357293,1.93333333333333,0.413099512040662,32.8888888888889,1.12,682.64,4.66666666666667,1.77777777777778,0.888666666666667,0,-1.53260616233334
S-Te-Ge,0.33,7.96215458118578,2.23,0.07801377879469,4.44444444444444,2.01,823.04,4,0.888888888888889,1.01633333333333,0,-0.0214407857
S-Te-Hf,1.04,8.39364598849814,1.99333333333333,0.336084236664527,19.5555555555556,1.3,2117.64,4.66666666666667,1.77777777777778,0.888666666666667,0,-1.3516115523
S-Te-Ir,0.14,7.28419675099816,2.29333333333333,0.055972517082164,12.8888888888889,2.1,2350.64,4.66666666666667,1.77777777777778,0.888666666666667,0,-0.2596266457
S-Te-Mo,0.18,5.33755221736636,2.28,0.055972517082164,17.3333333333333,2.1,2507.64,4.33333333333333,1.77777777777778,0.888666666666667,0,-0.412816019
S-Te-Os,0.14,5.236819545041,2.29333333333333,0.055972517082164,14.2222222222222,2.1,2917.64,4.66666666666667,1.77777777777778,0.888666666666667,0,0.018200261