Compound,mean EN difference,geom-mean_eta_both,MagpieData mean Electronegativity,max ionic char,MagpieData avg_dev MendeleevNumber,MagpieData minimum Electronegativity,MagpieData range MeltingT,MagpieData mean Row,MagpieData avg_dev NpValence,MagpieData mean GSbandgap,std_dev EN difference,Formation_energy
SH-NC-Ba,0.93,6.56844440975811,2.252,0.685139312535294,24.24,0.89,3808.99,2.8,1.44,4.1976,0.875042856093346,-0.6271415474
SH-NC-Be,0.703333333333333,11.4499195916119,2.388,0.417382851233086,7.36,1.57,3808.99,2,1.44,4.1976,0.496621921921831,0.1813858646
SH-NC-Ca,0.893333333333333,7.58370237976427,2.274,0.646686671641399,24.88,1,3808.99,2.4,1.44,4.1976,0.812916559883813,-0.5894464374
SH-NC-Cd,0.663333333333333,6.109489842339,2.412,0.365948438141932,6.64,1.69,3808.99,2.6,1.44,4.1976,0.432473505932252,0.2059877546
SH-NC-Co,0.6,5.66235581405587,2.45,0.285662686264043,9.52,1.88,3808.99,2.4,1.44,4.1976,0.335111921602321,0.3539131546
SH-NC-Cu,0.593333333333333,5.68528058152494,2.454,0.277400390009806,8.08,1.9,3808.99,2.4,1.44,4.1976,0.325320354932386,0.5306637866
SH-NC-Fe,0.616666666666667,5.4471185284276,2.44,0.306514536143557,10.24,1.83,3808.99,2.4,1.44,4.1976,0.360046293319808,0.3207671866
SH-NC-Mg,0.79,8.96094185199064,2.336,0.526794252062466,7.12,1.31,3808.99,2.2,1.44,4.1976,0.639296488336984,-0.2595732134
SH-NC-Mn,0.71,5.90500389433249,2.384,0.425942090430698,10.96,1.55,3808.99,2.4,1.44,4.1976,0.507444578254611,0.2986136506
SH-NC-Ni,0.59,5.73058353203079,2.456,0.273287979294598,8.8,1.91,3808.99,2.4,1.44,4.1976,0.320468407179241,0.2786566686
SH-NCO-Ba,1.14,5.99228638390036,2.45,0.803211356141508,21.1666666666667,0.89,3808.99,2.66666666666667,1.5,3.498,0.875042856093346,-1.0491728145
SH-NCO-Be,0.913333333333333,10.4455778241255,2.56333333333333,0.582814787035019,6.83333333333333,1.57,3808.99,2,1.5,3.498,0.496621921921831,-0.4786850612
SH-NCO-Ca,1.10333333333333,6.91848993078221,2.46833333333333,0.774266459580783,21.7222222222222,1,3808.99,2.33333333333333,1.5,3.498,0.812916559883813,-1.0547035578
SH-NCO-Cd,0.873333333333333,5.57358950019244,2.58333333333333,0.534956811865944,6.33333333333333,1.69,3808.99,2.5,1.5,3.498,0.432473505932252,-0.4122781478
SH-NCO-Co,0.81,5.16567630456898,2.615,0.455779073674793,8.77777777777778,1.88,3808.99,2.33333333333333,1.5,3.498,0.335111921602321,-0.3256936928
SH-NCO-Cu,0.803333333333333,5.1865902018922,2.61833333333333,0.447277935696606,7.44444444444444,1.9,3808.99,2.33333333333333,1.5,3.498,0.325320354932386,-0.1576671428
SH-NCO-Fe,0.826666666666667,4.96931878435279,2.60666666666667,0.476922164006862,9.44444444444444,1.83,3808.99,2.33333333333333,1.5,3.498,0.360046293319808,-0.3389335328
SH-NCO-Mg,1,8.17492339081603,2.52,0.678328679969553,6.66666666666667,1.31,3808.99,2.16666666666667,1.5,3.498,0.639296488336984,-0.8097002928
SH-NCO-Mn,0.92,5.38704025268447,2.56,0.590584603914435,10.1111111111111,1.55,3808.99,2.33333333333333,1.5,3.498,0.507444578254611,-0.3765482728
SH-NCO-Ni,0.8,5.22791935633604,2.62,0.443019472906049,8.11111111111111,1.91,3808.99,2.33333333333333,1.5,3.498,0.320468407179241,-0.3832783145
SH-NCO-Pb,0.66,5.22791935633604,2.69,0.319140970908075,4.5,2.2,3808.99,2.66666666666667,1.16666666666667,3.498,0.176918060129541,-0.3623007595
SH-NCO-Pd,0.703333333333333,4.8531704214795,2.66833333333333,0.319140970908075,7.88888888888889,2.2,3808.99,2.5,1.5,3.498,0.202072594216369,-0.1214763262
SH-NCO-Pt,0.676666666666667,5.12333279103395,2.68166666666667,0.319140970908075,7.66666666666667,2.2,3808.99,2.66666666666667,1.5,3.498,0.183393929379719,-0.0229905312
SH-NCO-Sr,1.12,6.49508899264359,2.46,0.787757332306276,21.4444444444444,0.95,3808.99,2.5,1.5,3.498,0.841130192063036,-1.0626853062
SH-NCO-Zn,0.886666666666667,5.66235581405587,2.57666666666667,0.551131362113503,6.5,1.65,3808.99,2.33333333333333,1.5,3.498,0.453688586293873,-0.4178266295
SH-NC-Pb,0.45,5.73058353203079,2.54,0.161717396775766,4.8,2.2,3808.99,2.8,1.04,4.1976,0.176918060129541,0.2404589306
SH-NC-Pd,0.493333333333333,5.31980250647187,2.514,0.161717396775766,8.56,2.2,3808.99,2.6,1.44,4.1976,0.202072594216369,0.5846853046
SH-NC-Pt,0.466666666666667,5.6159409738847,2.53,0.161717396775766,8.32,2.2,3808.99,2.8,1.44,4.1976,0.183393929379719,0.7083820526
SH-NCS-Ba,0.853333333333333,5.94316707315725,2.30666666666667,0.685139312535294,21.2222222222222,0.89,3808.99,2.83333333333333,1.5,3.865,0.875042856093346,-0.6867201523
SH-NCS-Be,0.626666666666666,10.3599544826889,2.42,0.417382851233086,7,1.57,3808.99,2.16666666666667,1.5,3.865,0.496621921921831,-0.0375184023
SH-NCS-Ca,0.816666666666666,6.86177844621495,2.325,0.646686671641399,21.7777777777778,1,3808.99,2.5,1.5,3.865,0.812916559883813,-0.674442714
SH-NCS-Cd,0.586666666666666,5.52790228548421,2.44,0.365948438141932,6.5,1.69,3808.99,2.66666666666667,1.5,3.865,0.432473505932252,-0.0214799723
SH-NCS-Co,0.523333333333333,5.12333279103395,2.47166666666667,0.285662686264043,8.88888888888889,1.88,3808.99,2.5,1.5,3.865,0.335111921602321,0.0735238477
SH-NCS-Cu,0.516666666666666,5.14407525525874,2.475,0.277400390009806,7.55555555555556,1.9,3808.99,2.5,1.5,3.865,0.325320354932386,0.2111579443
SH-NCS-Fe,0.54,4.92858483108147,2.46333333333333,0.306514536143557,9.55555555555556,1.83,3808.99,2.5,1.5,3.865,0.360046293319808,0.064991281
SH-NCS-Mg,0.713333333333333,8.10791280810866,2.37666666666667,0.526794252062466,6.83333333333333,1.31,3808.99,2.33333333333333,1.5,3.865,0.639296488336984,-0.408079304
SH-NCS-Mn,0.633333333333333,5.34288219894588,2.41666666666667,0.425942090430698,10.2222222222222,1.55,3808.99,2.5,1.5,3.865,0.507444578254611,-0.1284764173
SH-NCS-Ni,0.513333333333333,5.18506563090434,2.47666666666667,0.273287979294598,8.22222222222222,1.91,3808.99,2.5,1.5,3.865,0.320468407179241,0.0230121493
SH-NCS-Pb,0.373333333333333,5.18506563090434,2.54666666666667,0.161717396775766,4.66666666666667,2.2,3808.99,2.83333333333333,1.16666666666667,3.865,0.176918060129541,0.0035016777
SH-NCS-Pd,0.416666666666666,4.813388546791,2.525,0.161717396775766,8,2.2,3808.99,2.66666666666667,1.5,3.865,0.202072594216369,0.237044166
SH-NCS-Pt,0.39,5.08133637108992,2.53833333333333,0.161717396775766,7.77777777777778,2.2,3808.99,2.83333333333333,1.5,3.865,0.183393929379719,0.3359653993
SH-NC-Sr,0.91,7.11959146332426,2.264,0.664463655809218,24.56,0.95,3808.99,2.6,1.44,4.1976,0.841130192063036,-0.6261243614
SH-NCS-Sr,0.833333333333333,6.4418481636687,2.31666666666667,0.664463655809218,21.5,0.95,3808.99,2.66666666666667,1.5,3.865,0.841130192063036,-0.692958414
SH-NCS-Zn,0.6,5.6159409738847,2.43333333333333,0.383085599679248,6.66666666666667,1.65,3808.99,2.5,1.5,3.865,0.453688586293873,-0.012473824
SH-NC-Zn,0.676666666666667,6.20679103268891,2.404,0.383085599679248,6.88,1.65,3808.99,2.4,1.44,4.1976,0.453688586293873,0.2283087506
SH-NO-Ba,0.966666666666666,6.22659405530057,2.43,0.803211356141508,25.04,0.89,985.99,2.8,1.76,3.2984,1.08352818760443,-0.7545342534
SH-NO-Be,0.74,10.8540160828469,2.566,0.582814787035019,6.96,1.57,1545.99,2,1.76,3.2984,0.737495762699692,-0.0278149274
SH-NO-Ca,0.93,7.18901359427778,2.452,0.774266459580783,25.68,1,1100.99,2.4,1.76,3.2984,1.0252804494381,-0.7271093034
SH-NO-Cd,0.7,5.79152547545548,2.59,0.534956811865944,6.24,1.69,580.21,2.6,1.76,3.2984,0.681689078686171,0.0653168406
SH-NO-Co,0.636666666666666,5.36766224258801,2.628,0.455779073674793,9.36,1.88,1753.99,2.4,1.76,3.2984,0.599110451697626,0.0297938486
SH-NO-Cu,0.63,5.38939390566336,2.632,0.447277935696606,7.68,1.9,1343.76,2.4,1.76,3.2984,0.590931468107766,0.1270099346
SH-NO-Fe,0.653333333333333,5.1636268394443,2.618,0.476922164006862,10.32,1.83,1796.99,2.4,1.76,3.2984,0.620026881137692,0.1027554886
SH-NO-Mg,0.826666666666666,8.49457554708204,2.514,0.678328679969553,6.72,1.31,908.99,2.2,1.76,3.2984,0.865120415510658,-0.3943681634
SH-NO-Mn,0.746666666666666,5.59768186366236,2.562,0.590584603914435,11.28,1.55,1504.99,2.4,1.76,3.2984,0.74701628719415,-0.2699479574
SH-NO-Ni,0.626666666666666,5.43233909400784,2.634,0.443019472906049,8.4,1.91,1713.99,2.4,1.76,3.2984,0.586884429281723,0.0249495926
SH-NO-Pb,0.486666666666666,5.43233909400784,2.718,0.319140970908075,3.6,2.2,586.6,2.8,1.28,3.2984,0.452143045211726,0.0532849026
SH-NO-Pd,0.53,5.04293689582899,2.692,0.319140970908075,8.16,2.2,1814.04,2.6,1.76,3.2984,0.484974226119286,0.0705370506
SH-NO-Pt,0.78,5.32366303214204,2.708,0.319140970908075,7.92,2.2,2027.39,2.8,1.76,3.2984,0.056568542494924,0.1381208886
SH-NO-Sr,0.946666666666666,6.74905702419366,2.442,0.787757332306276,25.36,0.95,1035.99,2.6,1.76,3.2984,1.05168119377183,-0.7514853594
SH-NO-Zn,0.713333333333333,5.8837626895676,2.582,0.551131362113503,6.48,1.65,678.67,2.4,1.76,3.2984,0.700023809118899,0.0362223986
SH-OCN-Ba,1.14,6.31555741837449,2.45,0.803211356141508,21.1666666666667,0.89,3808.99,2.66666666666667,1.5,3.498,0.875042856093346,-0.9252972078
SH-OCN-Be,0.913333333333333,11.0090944073711,2.56333333333333,0.582814787035019,6.83333333333333,1.57,3808.99,2,1.5,3.498,0.496621921921831,-0.2355039228
SH-OCN-Ca,1.10333333333333,7.29172766570286,2.46833333333333,0.774266459580783,21.7222222222222,1,3808.99,2.33333333333333,1.5,3.498,0.812916559883813,-0.8741421695
SH-OCN-Cd,0.873333333333333,5.87427273327393,2.58333333333333,0.534956811865944,6.33333333333333,1.69,3808.99,2.5,1.5,3.498,0.432473505932252,-0.1807766395
SH-OCN-Co,0.81,5.44435349316649,2.615,0.455779073674793,8.77777777777778,1.88,3808.99,2.33333333333333,1.5,3.498,0.335111921602321,-0.1013002412
SH-OCN-Cu,0.803333333333333,5.46639565052093,2.61833333333333,0.447277935696606,7.44444444444444,1.9,3808.99,2.33333333333333,1.5,3.498,0.325320354932386,0.0382459105
SH-OCN-Fe,0.826666666666667,5.23740290469215,2.60666666666667,0.476922164006862,9.44444444444444,1.83,3808.99,2.33333333333333,1.5,3.498,0.360046293319808,-0.0952644012
SH-OCN-Mg,1,8.61594302372212,2.52,0.678328679969553,6.66666666666667,1.31,3808.99,2.16666666666667,1.5,3.498,0.639296488336984,-0.5888614662
SH-OCN-Mn,0.92,5.67765955284307,2.56,0.590584603914435,10.1111111111111,1.55,3808.99,2.33333333333333,1.5,3.498,0.507444578254611,-0.3272812128
SH-OCN-Ni,0.8,5.50995442445474,2.62,0.443019472906049,8.11111111111111,1.91,3808.99,2.33333333333333,1.5,3.498,0.320468407179241,0.0101527122
SH-OCN-Pb,0.66,5.50995442445474,2.69,0.319140970908075,4.5,2.2,3808.99,2.66666666666667,1.16666666666667,3.498,0.176918060129541,-0.1929618812
SH-OCN-Pd,0.703333333333333,5.11498858605289,2.66833333333333,0.319140970908075,7.88888888888889,2.2,3808.99,2.5,1.5,3.498,0.202072594216369,0.0527489938
SH-OCN-Pt,0.676666666666667,5.39972563763798,2.68166666666667,0.319140970908075,7.66666666666667,2.2,3808.99,2.66666666666667,1.5,3.498,0.183393929379719,0.1464174705
SH-OCN-Sr,1.12,6.84548515249581,2.46,0.787757332306276,21.4444444444444,0.95,3808.99,2.5,1.5,3.498,0.841130192063036,-0.9083999995
SH-OCN-Zn,0.886666666666667,5.96782779992231,2.57666666666667,0.551131362113503,6.5,1.65,3808.99,2.33333333333333,1.5,3.498,0.453688586293873,-0.1748901528
SH-SCN-Ba,0.853333333333333,5.842415964179,2.30666666666667,0.685139312535294,21.2222222222222,0.89,3808.99,2.83333333333333,1.5,3.865,0.875042856093346,-0.5727920773
SH-SCN-Be,0.626666666666666,10.1843281053303,2.42,0.417382851233086,7,1.57,3808.99,2.16666666666667,1.5,3.865,0.496621921921831,0.0434985093
SH-SCN-Ca,0.816666666666666,6.7454546445265,2.325,0.646686671641399,21.7777777777778,1,3808.99,2.5,1.5,3.865,0.812916559883813,-0.5347861273
SH-SCN-Cd,0.586666666666666,5.43419092271579,2.44,0.365948438141932,6.5,1.69,3808.99,2.66666666666667,1.5,3.865,0.432473505932252,0.045221661
SH-SCN-Co,0.523333333333333,5.03647986329233,2.47166666666667,0.285662686264043,8.88888888888889,1.88,3808.99,2.5,1.5,3.865,0.335111921602321,0.1079050293
SH-SCN-Cu,0.516666666666666,5.056870692396,2.475,0.277400390009806,7.55555555555556,1.9,3808.99,2.5,1.5,3.865,0.325320354932386,0.2615632293
SH-SCN-Fe,0.54,4.84503335401335,2.46333333333333,0.306514536143557,9.55555555555556,1.83,3808.99,2.5,1.5,3.865,0.360046293319808,0.0901738843
SH-SCN-Mg,0.713333333333333,7.97046400398443,2.37666666666667,0.526794252062466,6.83333333333333,1.31,3808.99,2.33333333333333,1.5,3.865,0.639296488336984,-0.287651794
SH-SCN-Mn,0.633333333333333,5.25230737578211,2.41666666666667,0.425942090430698,10.2222222222222,1.55,3808.99,2.5,1.5,3.865,0.507444578254611,0.1042168543
SH-SCN-Ni,0.513333333333333,5.09716618166993,2.47666666666667,0.273287979294598,8.22222222222222,1.91,3808.99,2.5,1.5,3.865,0.320468407179241,0.0767978193
SH-SCN-Pb,0.373333333333333,5.09716618166993,2.54666666666667,0.161717396775766,4.66666666666667,2.2,3808.99,2.83333333333333,1.16666666666667,3.865,0.176918060129541,0.1040198927
SH-SCN-Pd,0.416666666666666,4.73178992638156,2.525,0.161717396775766,8,2.2,3808.99,2.66666666666667,1.5,3.865,0.202072594216369,0.258392171
SH-SCN-Pt,0.39,4.99519538461301,2.53833333333333,0.161717396775766,7.77777777777778,2.2,3808.99,2.83333333333333,1.5,3.865,0.183393929379719,0.357464846
SH-SCN-Sr,0.833333333333333,6.33264319965372,2.31666666666667,0.664463655809218,21.5,0.95,3808.99,2.66666666666667,1.5,3.865,0.841130192063036,-0.564223809
SH-SCN-Zn,0.6,5.52073714163323,2.43333333333333,0.383085599679248,6.66666666666667,1.65,3808.99,2.5,1.5,3.865,0.453688586293873,0.0586848127
NH-O-Ce,1.58,6.33315850548489,2.45,0.739616569076971,27,1.12,1056.99,2.75,1.75,3.5725,0.763675323681471,-1.8528658375
NH-O-Ge,1.135,7.49834630206455,2.6725,0.400239577896362,4.5,2.01,1197.39,2.25,1.25,3.66825,0.134350288425444,-0.72146068
NH-O-Hf,1.49,7.90470264260064,2.495,0.681744258226629,15.75,1.3,2491.99,2.75,1.75,3.5725,0.636396103067893,-2.007719065
NH-O-Ir,1.04,6.85988060322528,2.72,0.319140970908075,10.125,2.2,2724.99,2.75,1.75,3.5725,0,-0.147127825
NH-O-Mo,1.06,5.02663123694404,2.71,0.336084236664526,13.875,2.16,2881.99,2.5,1.75,3.5725,0.028284271247462,-0.81103706
NH-O-Os,1.04,4.93176640440075,2.72,0.319140970908075,11.25,2.2,3291.99,2.75,1.75,3.5725,0,-0.039743955
NH-O-Pd,1.04,5.3333368055533,2.72,0.319140970908075,9.375,2.2,1814.04,2.5,1.75,3.5725,0,-0.089223735
NH-O-Pt,1,5.3539290438095,2.74,0.319140970908075,9,2.2,2027.39,2.75,1.75,3.5725,0.056568542494924,-0.27622712
NH-O-Re,1.19,5.7002769948493,2.645,0.447277935696606,12.375,1.9,3444.99,2.75,1.75,3.5725,0.212132034355964,-0.4033854275
NH-O-Ru,1.04,5.3125843123874,2.72,0.319140970908075,11.625,2.2,2592.99,2.5,1.75,3.5725,0,-0.24379356
NH-O-Sn,1.16,6.85988060322528,2.66,0.421663847129056,4.25,1.96,491.07,2.5,1.25,3.5725,0.169705627484772,-0.6975878325
NH-O-Tc,1.19,6.0893300888162,2.645,0.447277935696606,12.75,1.9,2415.99,2.5,1.75,3.5725,0.212132034355964,-0.5299890775
NH-O-Te,1.09,5.73624183897751,2.695,0.361670071504925,3.25,2.1,708.65,2.5,1.375,3.6885,0.070710678118655,0.009672395
NH-O-Ti,1.37,7.90470264260064,2.555,0.594445494936679,16.5,1.54,1926.99,2.25,1.75,3.5725,0.466690475583121,-1.76503506
NH-O-W,0.96,4.59501665750885,2.76,0.319140970908075,13.5,2.2,3680.99,2.75,1.75,3.5725,0.113137084989847,-0.78800797
NH-O-Zr,1.475,7.40301800442613,2.5025,0.671436448466081,16.125,1.33,2113.99,2.5,1.75,3.5725,0.615182899632296,-1.93629215
NH-PH-Ce,0.775,4.84948802474663,2.15,0.602118079548795,23.12,1.12,1056.99,2.6,1.44,4.7536,0.763675323681471,-0.59432369
NH-PH-Ge,0.478333333333334,5.74170701171818,2.328,0.232966651944445,5.12,2.01,1197.39,2.2,1.28,4.8302,0.134350288425444,0.28282707
NH-PH-Hf,0.715,6.05286616011198,2.186,0.530881557605336,13.52,1.3,2491.99,2.6,1.44,4.7536,0.636396103067893,-0.62764314
NH-PH-Ir,0.415,5.25281481708086,2.366,0.165251669366129,8.72,2.19,2724.99,2.6,1.44,4.7536,0,0.088734118
NH-PH-Mo,0.428333333333333,3.84904119599499,2.358,0.176012566668297,11.92,2.16,2881.99,2.4,1.44,4.7536,0.028284271247462,-0.127484966
NH-PH-Os,0.43,3.77640036930641,2.366,0.165251669366129,9.68,2.19,3291.99,2.6,1.44,4.7536,0,0.270761358
NH-PH-Pd,0.415,4.08389478142248,2.366,0.165251669366129,8.16,2.19,1814.04,2.4,1.44,4.7536,0,0.150498428
NH-PH-Pt,0.47,4.09966287134786,2.382,0.165251669366129,7.92,2.19,2027.39,2.6,1.44,4.7536,0,-0.077854834
NH-PH-Re,0.515,4.36487180927487,2.306,0.277400390009806,10.64,1.9,3444.99,2.6,1.44,4.7536,0.212132034355964,0.191571398
NH-PH-Ru,0.415,4.06800397954148,2.366,0.165251669366129,10,2.19,2592.99,2.4,1.44,4.7536,0,0.138545218
NH-PH-Sn,0.495,5.25281481708086,2.318,0.252932696862804,4.96,1.96,491.07,2.4,1.28,4.7536,0.169705627484772,0.197623614
NH-PH-Tc,0.515,4.66278134660117,2.306,0.277400390009806,10.96,1.9,2415.99,2.4,1.44,4.7536,0.212132034355964,0.06113486
NH-PH-Te,0.38,4.39241116120497,2.346,0.198203144033059,4.24,2.1,708.65,2.4,1.6,4.8464,0,0.43444858
NH-PH-Ti,0.635,6.05286616011198,2.234,0.430217175269077,14.16,1.54,1926.99,2.2,1.44,4.7536,0.466690475583121,-0.55794592
NH-PH-W,0.361666666666667,3.51854106206274,2.398,0.165251669366129,11.6,2.19,3680.99,2.6,1.44,4.7536,0.113137084989847,-0.065610134
NH-PH-Zr,0.705,5.6687112960075,2.192,0.518584713558295,13.84,1.33,2113.99,2.4,1.44,4.7536,0.615182899632296,-0.623087228
NH-S-Ce,1.15,5.55127801101929,2.235,0.602118079548795,27.125,1.12,1056.99,3,1.75,4.123,0.763675323681471,-1.2273983542
NH-S-Ge,0.705,6.57261379288213,2.4575,0.232966651944445,4.75,2.01,1197.39,2.5,1.25,4.21875,0.134350288425444,-0.0883400843
NH-S-Hf,1.06,6.92880210174927,2.28,0.530881557605336,15.875,1.3,2491.99,3,1.75,4.123,0.636396103067893,-1.2671540217
NH-S-Ir,0.61,6.01297193460763,2.505,0.161717396775766,10.25,2.2,2724.99,3,1.75,4.123,0,0.0942302207
NH-S-Mo,0.63,4.40605227722998,2.495,0.176012566668297,14,2.16,2881.99,2.75,1.75,4.123,0.028284271247462,-0.3611082267
NH-S-Os,0.61,4.32289928832871,2.505,0.161717396775766,11.375,2.2,3291.99,3,1.75,4.123,0,0.1963873582
NH-S-Pd,0.61,4.67489252138354,2.505,0.161717396775766,9.5,2.2,1814.04,2.75,1.75,4.123,0,0.1104919608
NH-S-Pt,0.57,4.69294247849899,2.525,0.161717396775766,9.125,2.2,2027.39,3,1.75,4.123,0.056568542494924,-0.1078335317
NH-S-Re,0.76,4.99653092699648,2.43,0.277400390009806,12.5,1.9,3444.99,3,1.75,4.123,0.212132034355964,-0.0047590967
NH-S-Ru,0.61,4.65670209414476,2.505,0.161717396775766,11.75,2.2,2592.99,2.75,1.75,4.123,0,0.0053200282
NH-S-Sn,0.73,6.01297193460763,2.445,0.252932696862804,4.5,1.96,491.07,2.75,1.25,4.123,0.169705627484772,-0.2062938817
NH-S-Tc,0.76,5.33755221736636,2.43,0.277400390009806,12.875,1.9,2415.99,2.75,1.75,4.123,0.212132034355964,-0.1372261068
NH-S-Te,0.66,5.02805561538155,2.48,0.198203144033059,3,2.1,708.65,2.75,1.375,4.239,0.070710678118655,0.2700537408
NH-S-Ti,0.94,6.92880210174927,2.34,0.430217175269077,16.625,1.54,1926.99,2.5,1.75,4.123,0.466690475583121,-1.0592666693
NH-S-W,0.53,4.02772406675194,2.545,0.161717396775766,13.625,2.2,3680.99,3,1.75,4.123,0.113137084989847,-0.3222683192
NH-S-Zr,1.045,6.48905455746275,2.2875,0.518584713558295,16.25,1.33,2113.99,2.75,1.75,4.123,0.615182899632296,-1.2362461442
NH-Se-Ce,1.135,5.25542296786547,2.2275,0.602118079548795,27.25,1.12,1056.99,3.25,1.75,3.77225,0.763675323681471,-1.14782565
NH-Se-Ge,0.69,6.22232671782182,2.45,0.232966651944445,5,2.01,1197.39,2.75,1.25,3.868,0.134350288425444,0.0636658875
NH-Se-Hf,1.045,6.55953199120027,2.2725,0.530881557605336,16,1.3,2491.99,3.25,1.75,3.77225,0.636396103067893,-1.13308688
NH-Se-Ir,0.595,5.69251094028077,2.4975,0.161717396775766,10.375,2.2,2724.99,3.25,1.75,3.77225,0,0.181636335
NH-Se-Mo,0.615,4.17123197386374,2.4875,0.176012566668297,14.125,2.16,2881.99,3,1.75,3.77225,0.028284271247462,-0.259110535
NH-Se-Os,0.595,4.09251061873598,2.4975,0.161717396775766,11.5,2.2,3291.99,3.25,1.75,3.77225,0,0.31977573
NH-Se-Pd,0.595,4.42574439262689,2.4975,0.161717396775766,9.625,2.2,1814.04,3,1.75,3.77225,0,0.160756
NH-Se-Pt,0.555,4.44283237831329,2.5175,0.161717396775766,9.25,2.2,2027.39,3.25,1.75,3.77225,0.056568542494924,-0.02244235
NH-Se-Re,0.745,4.73024109786315,2.4225,0.277400390009806,12.625,1.9,3444.99,3.25,1.75,3.77225,0.212132034355964,0.0771368775
NH-Se-Ru,0.595,4.40852342316432,2.4975,0.161717396775766,11.875,2.2,2592.99,3,1.75,3.77225,0,0.051076625
NH-Se-Sn,0.715,5.69251094028077,2.4375,0.252932696862804,4.75,1.96,491.07,3,1.25,3.77225,0.169705627484772,-0.1016988525