Compound,mean EN difference,geom-mean_eta_both,MagpieData mean Electronegativity,max ionic char,MagpieData avg_dev MendeleevNumber,MagpieData minimum Electronegativity,MagpieData range MeltingT,MagpieData mean Row,MagpieData avg_dev NpValence,MagpieData mean GSbandgap,std_dev EN difference,Formation_energy
NCS-I-Mn,0.71,5.16315173115994,2.476,0.425942090430698,11.6,1.55,3759.95,3.2,1.44,2.8394,0.707106781186547,-0.1966986314
NCS-I-Ni,0.53,5.01064399167616,2.548,0.273287979294598,9.44,1.91,3759.95,3.2,1.44,2.8394,0.45254833995939,0.1184287086
NCS-I-Pb,0.32,5.01064399167616,2.632,0.118407193312251,5.76,2.33,3759.95,3.6,1.04,2.8394,0.15556349186104,-0.0717408254
NCS-I-Pd,0.385,4.6514698401946,2.606,0.161717396775766,9.2,2.2,3759.95,3.4,1.44,2.8394,0.247487373415291,0.2904286946
NCS-I-Pt,0.345,4.91040410476859,2.622,0.134458537778234,8.96,2.28,3759.95,3.6,1.44,2.8394,0.190918830920368,0.5328637746
NCS-I-Sr,1.01,6.22514932196663,2.356,0.664463655809218,24.88,0.95,3759.95,3.4,1.44,2.8394,1.13137084989848,-0.8780414214
NCS-I-Zn,0.66,5.42702501790617,2.496,0.383085599679248,7.68,1.65,3759.95,3.2,1.44,2.8394,0.636396103067893,0.0364290446
NCS-NC-Ba,0.89,6.51460227982778,2.44166666666667,0.685139312535294,20.0555555555556,0.89,3759.95,2.83333333333333,1,4.01133333333333,1.17379725676967,-0.3757551378
NCS-NC-Be,0.663333333333333,11.3560635703251,2.555,0.417382851233086,5.16666666666667,1.57,3759.95,2.16666666666667,1,4.01133333333333,0.692964645562816,0.3378057972
NCS-NC-Ca,0.853333333333334,7.5215380888893,2.46,0.646686671641399,20.6111111111111,1,3759.95,2.5,1,4.01133333333333,1.09601551083915,-0.3743470945
NCS-NC-Cd,0.623333333333334,6.05940980429977,2.575,0.365948438141932,4.66666666666667,1.69,3759.95,2.66666666666667,1,4.01133333333333,0.608111831820431,0.3569279655
NCS-NC-Co,0.56,5.6159409738847,2.60666666666667,0.285662686264043,6.66666666666667,1.88,3759.95,2.5,1,4.01133333333333,0.473761543394987,0.4890694805
NCS-NC-Cu,0.553333333333334,5.63867782497179,2.61,0.277400390009806,5.66666666666667,1.9,3759.95,2.5,1,4.01133333333333,0.459619407771256,0.6583622655
NCS-NC-Fe,0.576666666666667,5.40246800765622,2.59833333333333,0.306514536143557,7.27777777777778,1.83,3759.95,2.5,1,4.01133333333333,0.509116882454314,0.5684142455
NCS-NC-Mg,0.75,8.88748820522211,2.51166666666667,0.526794252062466,5,1.31,3759.95,2.33333333333333,1,4.01133333333333,0.876812408671319,-0.1120420128
NCS-NC-Mn,0.67,5.85660004601105,2.55166666666667,0.425942090430698,8.11111111111111,1.55,3759.95,2.5,1,4.01133333333333,0.707106781186547,0.2131167438
NCS-NC-Ni,0.55,5.68360942311546,2.61166666666667,0.273287979294598,6.16666666666667,1.91,3759.95,2.5,1,4.01133333333333,0.45254833995939,0.4362430005
NCS-NCO-Ba,1.02833333333333,5.94316707315725,2.58428571428571,0.803211356141508,17.9183673469388,0.89,3768.2,2.71428571428571,1.06122448979592,3.43828571428571,1.17379725676967,-0.7827014267
NCS-NCO-Be,0.801666666666667,10.3599544826889,2.68142857142857,0.582814787035019,5.42857142857143,1.57,3768.2,2.14285714285714,1.06122448979592,3.43828571428571,0.692964645562816,-0.2527675639
NCS-NCO-Ca,0.991666666666667,6.86177844621495,2.6,0.774266459580783,18.4081632653061,1,3768.2,2.42857142857143,1.06122448979592,3.43828571428571,1.09601551083915,-0.8158292139
NCS-NCO-Cd,0.761666666666667,5.52790228548421,2.69857142857143,0.534956811865944,4.93877551020408,1.69,3768.2,2.57142857142857,1.06122448979592,3.43828571428571,0.608111831820431,-0.2072231853
NCS-NCO-Co,0.698333333333333,5.12333279103395,2.72571428571429,0.455779073674793,6.89795918367347,1.88,3768.2,2.42857142857143,1.06122448979592,3.43828571428571,0.473761543394987,-0.1129620067
NCS-NCO-Cu,0.691666666666667,5.14407525525874,2.72857142857143,0.447277935696606,5.91836734693878,1.9,3768.2,2.42857142857143,1.06122448979592,3.43828571428571,0.459619407771256,0.0345709119
NCS-NCO-Fe,0.715,4.92858483108147,2.71857142857143,0.476922164006862,7.38775510204082,1.83,3768.2,2.42857142857143,1.06122448979592,3.43828571428571,0.509116882454314,-0.1374235353
NCS-NCO-Mg,0.888333333333333,8.10791280810866,2.64428571428571,0.678328679969553,5.26530612244898,1.31,3768.2,2.28571428571429,1.06122448979592,3.43828571428571,0.876812408671319,-0.6165192167
NCS-NCO-Mn,0.808333333333333,5.34288219894588,2.67857142857143,0.590584603914435,7.87755102040816,1.55,3768.2,2.42857142857143,1.06122448979592,3.43828571428571,0.707106781186547,-0.351857331
NCS-NCO-Ni,0.688333333333333,5.18506563090434,2.73,0.443019472906049,6.40816326530612,1.91,3768.2,2.42857142857143,1.06122448979592,3.43828571428571,0.45254833995939,-0.1634168224
NCS-NCO-Pb,0.548333333333333,5.18506563090434,2.79,0.265103054644222,3.14285714285714,2.33,3768.2,2.71428571428571,0.73469387755102,3.43828571428571,0.15556349186104,-0.155316041
NCS-NCO-Pd,0.591666666666667,4.813388546791,2.77142857142857,0.319140970908075,6.24489795918367,2.2,3768.2,2.57142857142857,1.06122448979592,3.43828571428571,0.247487373415291,0.0665212133
NCS-NCO-Pt,0.565,5.08133637108992,2.78285714285714,0.285662686264043,6.08163265306122,2.28,3768.2,2.71428571428571,1.06122448979592,3.43828571428571,0.190918830920368,0.2477821476
NCS-NCO-Sr,1.00833333333333,6.4418481636687,2.59285714285714,0.787757332306276,18.1632653061225,0.95,3768.2,2.57142857142857,1.06122448979592,3.43828571428571,1.13137084989848,-0.8096050353
NCS-NCO-Zn,0.775,5.6159409738847,2.69285714285714,0.551131362113503,5.10204081632653,1.65,3768.2,2.42857142857143,1.06122448979592,3.43828571428571,0.636396103067893,-0.213517881
NCS-NC-Pb,0.41,5.68360942311546,2.68166666666667,0.118407193312251,2.83333333333333,2.33,3759.95,2.83333333333333,0.666666666666667,4.01133333333333,0.15556349186104,0.3962168438
NCS-NC-Pd,0.453333333333333,5.27619560658982,2.66,0.161717396775766,6,2.2,3759.95,2.66666666666667,1,4.01133333333333,0.247487373415291,0.6931783205
NCS-NC-Pt,0.426666666666667,5.56990660033533,2.67333333333333,0.134458537778234,5.83333333333333,2.28,3759.95,2.83333333333333,1,4.01133333333333,0.190918830920368,0.9074287455
NCS-NC-Sr,0.87,7.06123153139735,2.45166666666667,0.664463655809218,20.3333333333333,0.95,3759.95,2.66666666666667,1,4.01133333333333,1.13137084989848,-0.3867601345
NCS-NC-Zn,0.636666666666667,6.15591340803611,2.56833333333333,0.383085599679248,4.83333333333333,1.65,3759.95,2.5,1,4.01133333333333,0.636396103067893,0.3686112622
NO-Br-Ba,1.235,6.27681069209956,2.5825,0.803211356141508,29.625,0.89,945.2,3.5,1.5,1.9735,1.52027957955108,-1.2454325825
NO-Br-Be,0.895,10.941552250871,2.7525,0.582814787035019,8.25,1.57,1505.2,2.5,1.5,1.9735,1.03944696834423,-0.20435418
NO-Br-Ca,1.18,7.24699201416522,2.61,0.774266459580783,30.375,1,1060.2,3,1.5,1.9735,1.44249783362056,-1.187629085
NO-Br-Cd,0.835,5.83823334314848,2.7825,0.534956811865944,7.5,1.69,539.42,3.25,1.5,1.9735,0.954594154601839,-0.1595095025
NO-Br-Co,0.74,5.41095171077909,2.83,0.455779073674793,11.25,1.88,1713.2,3,1.5,1.9735,0.820243866176395,-0.118347565
NO-Br-Cu,0.73,5.43285863677057,2.835,0.447277935696606,9,1.9,1302.97,3,1.5,1.9735,0.806101730552664,-0.00010232
NO-Br-Fe,0.765,5.20527078977396,2.8175,0.476922164006862,12.375,1.83,1756.2,3,1.5,1.9735,0.855599205235722,-0.157352855
NO-Br-Mg,1.025,8.56308314709914,2.6875,0.678328679969553,8,1.31,868.2,2.75,1.5,1.9735,1.22329473145273,-0.7657136075
NO-Br-Mn,0.905,5.6428264089093,2.7475,0.590584603914435,13.5,1.55,1464.2,3,1.5,1.9735,1.05358910396796,-0.5910146175
NO-Br-Ni,0.725,5.47615017223615,2.8375,0.443019472906049,10.125,1.91,1673.2,3,1.5,1.9735,0.799030662740799,-0.2246482325
NO-Br-Pb,0.515,5.47615017223615,2.9425,0.265103054644222,4.75,2.33,545.81,3.5,1,1.9735,0.502045814642449,-0.1905823675
NO-Br-Pd,0.58,5.0836074981276,2.91,0.319140970908075,9.75,2.2,1773.25,3.25,1.5,1.9735,0.5939696961967,-0.0633483275
NO-Br-Pt,0.866666666666667,5.36659765266668,2.93,0.285662686264043,9.375,2.28,1986.6,3.5,1.5,1.9735,0,0.2258940625
NO-Br-Sr,1.205,6.80348725399659,2.5975,0.787757332306276,30,0.95,995.2,3.25,1.5,1.9735,1.47785317267988,-1.2281603
NO-Br-Zn,0.855,5.93121443788608,2.7725,0.551131362113503,7.75,1.65,637.88,3,1.5,1.9735,0.982878425849301,-0.150331995
NO-Cl-Ba,1.335,6.51661233928265,2.6325,0.803211356141508,29.5,0.89,945.2,3.25,1.5,2.2325,1.52027957955108,-1.3425891075
NO-Cl-Be,0.995,11.3595674469962,2.8025,0.582814787035019,8,1.57,1505.2,2.25,1.5,2.2325,1.03944696834423,-0.3967389475
NO-Cl-Ca,1.28,7.52385883513002,2.66,0.774266459580783,30.25,1,1060.2,2.75,1.5,2.2325,1.44249783362056,-1.3058797125
NO-Cl-Cd,0.935,6.06127941558912,2.8325,0.534956811865944,7.25,1.69,539.42,3,1.5,2.2325,0.954594154601839,-0.2490856375
NO-Cl-Co,0.84,5.61767375430131,2.88,0.455779073674793,11.125,1.88,1713.2,2.75,1.5,2.2325,0.820243866176395,-0.2071709375
NO-Cl-Cu,0.83,5.64041762077024,2.885,0.447277935696606,8.875,1.9,1302.97,2.75,1.5,2.2325,0.806101730552664,-0.14425025
NO-Cl-Fe,0.865,5.40413492167982,2.8675,0.476922164006862,12.25,1.83,1756.2,2.75,1.5,2.2325,0.855599205235722,-0.354880335
NO-Cl-Mg,1.125,8.89023041095158,2.7375,0.678328679969553,7.75,1.31,868.2,2.5,1.5,2.2325,1.22329473145273,-0.9193415
NO-Cl-Mn,1.005,5.85840708100569,2.7975,0.590584603914435,13.375,1.55,1464.2,2.75,1.5,2.2325,1.05358910396796,-0.73692707
NO-Cl-Ni,0.825,5.68536308241314,2.8875,0.443019472906049,10,1.91,1673.2,2.75,1.5,2.2325,0.799030662740799,-0.3841356825
NO-Cl-Pb,0.615,5.68536308241314,2.9925,0.265103054644222,4.5,2.33,545.81,3.25,1,2.2325,0.502045814642449,-0.2470751975
NO-Cl-Pd,0.68,5.27782355967263,2.96,0.319140970908075,9.625,2.2,1773.25,3,1.5,2.2325,0.5939696961967,-0.18076542
NO-Cl-Pt,0.933333333333334,5.57162517699494,2.98,0.285662686264043,9.25,2.28,1986.6,3.25,1.5,2.2325,0,-0.0246479025
NO-Cl-Sr,1.305,7.06341025153912,2.6475,0.787757332306276,29.875,0.95,995.2,3,1.5,2.2325,1.47785317267988,-1.3367911625
NO-Cl-Zn,0.955,6.15781279520016,2.8225,0.551131362113503,7.5,1.65,637.88,2.75,1.5,2.2325,0.982878425849301,-0.29916197
NO-CN-Ba,1.45333333333333,6.78288660973319,2.592,0.803211356141508,23.36,0.89,3768.2,2.8,1.12,3.474,1.17379725676967,-0.333120968
NO-CN-Be,1.11333333333333,11.8237289433536,2.728,0.582814787035019,5.6,1.57,3768.2,2,1.12,3.474,0.692964645562816,0.439826818
NO-CN-Ca,1.39833333333333,7.83129004600939,2.614,0.774266459580783,24,1,3768.2,2.4,1.12,3.474,1.09601551083915,-0.261577284
NO-CN-Cd,1.05333333333333,6.30894839915805,2.752,0.534956811865944,4.88,1.69,3768.2,2.6,1.12,3.474,0.608111831820431,0.525458146
NO-CN-Co,0.958333333333334,5.84721663681079,2.79,0.455779073674793,7.76,1.88,3768.2,2.4,1.12,3.474,0.473761543394987,0.446796726
NO-CN-Cu,0.948333333333334,5.87088983682541,2.794,0.447277935696606,6.32,1.9,3768.2,2.4,1.12,3.474,0.459619407771256,0.558404074
NO-CN-Fe,0.983333333333333,5.6249524275812,2.78,0.476922164006862,8.64,1.83,3768.2,2.4,1.12,3.474,0.509116882454314,0.406033898
NO-CN-Mg,1.24333333333333,9.25349271559159,2.676,0.678328679969553,5.36,1.31,3768.2,2.2,1.12,3.474,0.876812408671319,0.047287128
NO-CN-Mn,1.12333333333333,6.09778653006293,2.724,0.590584603914435,9.6,1.55,3768.2,2.4,1.12,3.474,0.707106781186547,0.271028332
NO-CN-Ni,0.943333333333334,5.91767180789774,2.796,0.443019472906049,7.04,1.91,3768.2,2.4,1.12,3.474,0.45254833995939,0.375490188
NO-CN-Pb,0.733333333333333,5.91767180789774,2.88,0.265103054644222,2.24,2.33,3768.2,2.8,0.64,3.474,0.15556349186104,0.536849852
NO-CN-Pd,0.798333333333333,5.49347987690466,2.854,0.319140970908075,6.8,2.2,3768.2,2.6,1.12,3.474,0.247487373415291,0.474236742
NO-CN-Pt,0.758333333333334,5.7992864758396,2.87,0.285662686264043,6.56,2.28,3768.2,2.8,1.12,3.474,0.190918830920368,0.527704098
NO-CN-Sr,1.42333333333333,7.35202714536351,2.604,0.787757332306276,23.68,0.95,3768.2,2.6,1.12,3.474,1.13137084989848,-0.302745726
NO-CN-Zn,1.07333333333333,6.40942621398968,2.744,0.551131362113503,5.12,1.65,3768.2,2.4,1.12,3.474,0.636396103067893,0.490973826
NO-F-Ba,1.745,7.44198197476018,2.8375,0.908097311920564,29.375,0.89,946.5,3,1.5,2.10175,1.52027957955108,-1.7504117
NO-F-Be,1.405,12.9726446472838,3.0075,0.76590423612167,7.75,1.57,1506.5,2,1.5,2.10175,1.03944696834422,-1.2287982
NO-F-Ca,1.69,8.5922591242924,2.865,0.891401751542897,30.125,1,1061.5,2.5,1.5,2.10175,1.44249783362056,-1.791219905
NO-F-Cd,1.345,6.92199102943183,3.0375,0.730456367481674,7,1.69,540.72,2.75,1.5,2.10175,0.954594154601839,-0.624831685
NO-F-Co,1.25,6.4153926369964,3.085,0.667960054655339,11,1.88,1714.5,2.5,1.5,2.10175,0.820243866176395,-0.671115075
NO-F-Cu,1.24,6.44136616979008,3.09,0.660947392745558,8.75,1.9,1304.27,2.5,1.5,2.10175,0.806101730552664,-0.617310405
NO-F-Fe,1.275,6.17153094006823,3.0725,0.685139312535294,12.125,1.83,1757.5,2.5,1.5,2.10175,0.855599205235722,-0.778193665
NO-F-Mg,1.535,10.1526577039029,2.9425,0.831736655486387,7.5,1.31,869.5,2.25,1.5,2.10175,1.22329473145273,-1.4724020225
NO-F-Mn,1.415,6.69031049074973,3.0025,0.77150135530994,13.25,1.55,1465.5,2.5,1.5,2.10175,1.05358910396796,-1.093717145
NO-F-Ni,1.235,6.49269396066962,3.0925,0.657411410756611,9.875,1.91,1674.5,2.5,1.5,2.10175,0.799030662740799,-0.795515015
NO-F-Pb,1.025,6.49269396066962,3.1975,0.493699544326619,4.25,2.33,547.11,3,1,2.10175,0.502045814642449,-0.6380607575
NO-F-Pd,1.09,6.02728315758185,3.165,0.547107278760105,9.5,2.2,1774.55,2.75,1.5,2.10175,0.5939696961967,-0.541313765
NO-F-Pt,1.20666666666667,6.36280508622073,3.185,0.514463104845921,9.125,2.28,1987.9,3,1.5,2.10175,0,-0.3783758625
NO-F-Sr,1.715,8.06642608697465,2.8525,0.89926127549485,29.75,0.95,996.5,2.75,1.5,2.10175,1.47785317267988,-1.7849491675
NO-F-Zn,1.365,7.03223230720393,3.0275,0.742626000251458,7.25,1.65,639.18,2.5,1.5,2.10175,0.982878425849301,-0.77473381
NO-I-Ba,1.085,6.01713619705074,2.5075,0.803211356141508,29.75,0.89,945.2,3.75,1.5,1.87475,1.52027957955108,-1.0331128
NO-I-Be,0.745,10.4888952893712,2.6775,0.582814787035019,8.5,1.57,1505.2,2.75,1.5,1.87475,1.03944696834423,0.1716027925
NO-I-Ca,1.03,6.94718067936269,2.535,0.774266459580783,30.5,1,1060.2,3.25,1.5,1.87475,1.44249783362056,-0.920709515
NO-I-Cd,0.685,5.59670299123466,2.7075,0.534956811865944,7.75,1.69,539.42,3.5,1.5,1.87475,0.954594154601839,0.04007462
NO-I-Co,0.59,5.18709819310034,2.755,0.455779073674793,11.375,1.88,1713.2,3.25,1.5,1.87475,0.820243866176395,0.1694389825
NO-I-Cu,0.58,5.20809881966302,2.76,0.447277935696606,9.25,1.9,1302.97,3.25,1.5,1.87475,0.806101730552664,0.2566014425
NO-I-Fe,0.615,4.9899263847518,2.7425,0.476922164006862,12.5,1.83,1756.2,3.25,1.5,1.87475,0.855599205235722,0.154139375
NO-I-Mg,0.875,8.20882452733818,2.6125,0.678328679969553,8.25,1.31,868.2,3,1.5,1.87475,1.22329473145273,-0.454203075
NO-I-Mn,0.755,5.40938013017638,2.6725,0.590584603914435,13.625,1.55,1464.2,3.25,1.5,1.87475,1.05358910396796,-0.2301562575
NO-I-Ni,0.575,5.24959936474139,2.7625,0.443019472906049,10.25,1.91,1673.2,3.25,1.5,1.87475,0.799030662740799,0.0793502825
NO-I-Pb,0.365,5.24959936474139,2.8675,0.265103054644222,5,2.33,545.81,3.75,1,1.87475,0.502045814642449,-0.032162705
NO-I-Pd,0.43,4.87329635846487,2.835,0.319140970908075,9.875,2.2,1773.25,3.5,1.5,1.87475,0.5939696961967,0.164370875
NO-I-Pt,0.766666666666667,5.14457908241723,2.855,0.285662686264043,9.5,2.28,1986.6,3.75,1.5,1.87475,0,0.34203915
NO-I-Sr,1.055,6.522023911558,2.5225,0.787757332306276,30.125,0.95,995.2,3.5,1.5,1.87475,1.47785317267988,-1.0007797125
NO-I-Zn,0.705,5.68583741606146,2.6975,0.551131362113503,8,1.65,637.88,3.25,1.5,1.87475,0.982878425849301,0.12510176
NO-NC-Ba,1.45333333333333,6.82528075164376,2.592,0.803211356141508,23.36,0.89,3768.2,2.8,1.12,3.474,1.17379725676967,-0.376579134
NO-NC-Be,1.11333333333333,11.8976291677827,2.728,0.582814787035019,5.6,1.57,3768.2,2,1.12,3.474,0.692964645562816,0.301495026
NO-NC-Ca,1.39833333333333,7.88023687951196,2.614,0.774266459580783,24,1,3768.2,2.4,1.12,3.474,1.09601551083915,-0.339640532
NO-NC-Cd,1.05333333333333,6.34838035035072,2.752,0.534956811865944,4.88,1.69,3768.2,2.6,1.12,3.474,0.608111831820431,0.521826914
NO-NC-Co,0.958333333333334,5.8837626895676,2.79,0.455779073674793,7.76,1.88,3768.2,2.4,1.12,3.474,0.473761543394987,0.469978252
NO-NC-Cu,0.948333333333334,5.90758385092357,2.794,0.447277935696606,6.32,1.9,3768.2,2.4,1.12,3.474,0.459619407771256,0.557634306
NO-NC-Fe,0.983333333333333,5.66010929296547,2.78,0.476922164006862,8.64,1.83,3768.2,2.4,1.12,3.474,0.509116882454314,0.421287332
NO-NC-Mg,1.24333333333333,9.31132854654744,2.676,0.678328679969553,5.36,1.31,3768.2,2.2,1.12,3.474,0.876812408671319,-0.052328294
NO-NC-Mn,1.12333333333333,6.13589868531036,2.724,0.590584603914435,9.6,1.55,3768.2,2.4,1.12,3.474,0.707106781186547,0.259658958
NO-NC-Ni,0.943333333333334,5.954658216906,2.796,0.443019472906049,7.04,1.91,3768.2,2.4,1.12,3.474,0.45254833995939,0.362485388
NO-NCO-Ba,1.52,6.22659405530057,2.73333333333333,0.803211356141508,20.5555555555556,0.89,3768.2,2.66666666666667,1.11111111111111,2.895,1.17379725676967,-0.8427558117
NO-NCO-Be,1.18,10.8540160828469,2.84666666666667,0.582814787035019,5.55555555555556,1.57,3768.2,2,1.11111111111111,2.895,0.692964645562816,-0.3888020083
NO-NCO-Ca,1.465,7.18901359427778,2.75166666666667,0.774266459580783,21.1111111111111,1,3768.2,2.33333333333333,1.11111111111111,2.895,1.09601551083915,-0.862011775
NO-NCO-Cd,1.12,5.79152547545548,2.86666666666667,0.534956811865944,4.88888888888889,1.69,3768.2,2.5,1.11111111111111,2.895,0.608111831820431,-0.169197795
NO-NCO-Co,1.025,5.36766224258801,2.89833333333333,0.455779073674793,7.55555555555556,1.88,3768.2,2.33333333333333,1.11111111111111,2.895,0.473761543394987,-0.2281166983
NO-NCO-Cu,1.015,5.38939390566336,2.90166666666667,0.447277935696606,6.22222222222222,1.9,3768.2,2.33333333333333,1.11111111111111,2.895,0.459619407771256,-0.1544062117
NO-NCO-Fe,1.05,5.1636268394443,2.89,0.476922164006862,8.22222222222222,1.83,3768.2,2.33333333333333,1.11111111111111,2.895,0.509116882454314,-0.280586195
NO-NCO-Mg,1.31,8.49457554708204,2.80333333333333,0.678328679969553,5.33333333333333,1.31,3768.2,2.16666666666667,1.11111111111111,2.895,0.876812408671319,-0.66033863
NO-NCO-Mn,1.19,5.59768186366236,2.84333333333333,0.590584603914435,8.88888888888889,1.55,3768.2,2.33333333333333,1.11111111111111,2.895,0.707106781186547,-0.4462069083
NO-NCO-Ni,1.01,5.43233909400784,2.90333333333333,0.443019472906049,6.88888888888889,1.91,3768.2,2.33333333333333,1.11111111111111,2.895,0.45254833995939,-0.3281544617
NO-NCO-Pb,0.8,5.43233909400784,2.97333333333333,0.265103054644222,2.88888888888889,2.33,3768.2,2.66666666666667,0.666666666666667,2.895,0.15556349186104,-0.13152409
NO-NCO-Pd,0.865,5.04293689582899,2.95166666666667,0.319140970908075,6.66666666666667,2.2,3768.2,2.5,1.11111111111111,2.895,0.247487373415291,-0.1587648783
NO-NCO-Pt,0.825,5.32366303214204,2.965,0.285662686264043,6.44444444444444,2.28,3768.2,2.66666666666667,1.11111111111111,2.895,0.190918830920368,-0.066950955
NO-NCO-Sr,1.49,6.74905702419366,2.74333333333333,0.787757332306276,20.8333333333333,0.95,3768.2,2.5,1.11111111111111,2.895,1.13137084989848,-0.8574877217
NO-NCO-Zn,1.14,5.8837626895676,2.86,0.551131362113503,5.11111111111111,1.65,3768.2,2.33333333333333,1.11111111111111,2.895,0.636396103067893,-0.2475838333
NO-NC-Pb,0.733333333333333,5.954658216906,2.88,0.265103054644222,2.24,2.33,3768.2,2.8,0.64,3.474,0.15556349186104,0.536214474
NO-NC-Pd,0.798333333333333,5.52781501751429,2.854,0.319140970908075,6.8,2.2,3768.2,2.6,1.12,3.474,0.247487373415291,0.5425115
NO-NC-Pt,0.758333333333334,5.83553295731314,2.87,0.285662686264043,6.56,2.28,3768.2,2.8,1.12,3.474,0.190918830920368,0.657895006
NO-NCS-Ba,1.305,6.17555410348932,2.59,0.803211356141508,20.6111111111111,0.89,3768.2,2.83333333333333,1.11111111111111,3.262,1.17379725676967,-0.4809451912
NO-NCS-Be,0.965,10.7650447362476,2.70333333333333,0.582814787035019,5.66666666666667,1.57,3768.2,2.16666666666667,1.11111111111111,3.262,0.692964645562816,0.1676128555
NO-NCS-Ca,1.25,7.13008460289604,2.60833333333333,0.774266459580783,21.1666666666667,1,3768.2,2.5,1.11111111111111,3.262,1.09601551083915,-0.4829597145