Compound,mean EN difference,geom-mean_eta_both,MagpieData mean Electronegativity,max ionic char,MagpieData avg_dev MendeleevNumber,MagpieData minimum Electronegativity,MagpieData range MeltingT,MagpieData mean Row,MagpieData avg_dev NpValence,MagpieData mean GSbandgap,std_dev EN difference,Formation_energy
PH-CN-Lu,0.866666666666667,5.20588584027971,2.25,0.543069966787304,13.6,1.27,3808.99,2.8,1.28,4.0822,0.650538238691624,-0.189335302
PH-CN-Nd,0.931666666666667,4.75147876396204,2.224,0.59444549493668,20.64,1.14,3808.99,2.8,1.28,4.0822,0.742462120245875,-0.20513395
PH-CN-Rh,0.361666666666667,5.07347499618341,2.452,0.165251669366129,8.48,2.19,3808.99,2.6,1.28,4.0822,0.063639610306789,0.15754336
PH-CN-Ru,0.401666666666667,4.9968246505247,2.436,0.165251669366129,9.2,2.19,3808.99,2.6,1.28,4.0822,0.007071067811866,0.354246388
PH-CN-Sc,0.821666666666667,6.59494562522479,2.268,0.506187801966654,23.2,1.36,3808.99,2.4,1.28,4.0822,0.586898628384834,-0.137608452
PH-CN-Sm,0.916666666666667,4.71679520072147,2.23,0.582814787035019,19.36,1.17,3808.99,2.8,1.28,4.0822,0.721248916810279,-0.210928266
PH-CN-Y,0.891666666666667,6.21615626706946,2.24,0.563121432466778,22.88,1.22,3808.99,2.6,1.28,4.0822,0.685893577750951,-0.220998008
PH-F-Al,1.18,8.90147684115004,2.495,0.754442710372489,7.25,1.61,919.46,2.25,1.75,2.862,0.417193000900063,-0.92686684
PH-F-Bi,0.975,5.34218149307569,2.5975,0.617260240551931,4,2.02,530.39,3,1.375,2.862,0.127279220613579,-0.6289841925
PH-F-Ce,1.425,5.03732073939252,2.3725,0.870606871356709,27.875,1.12,1056.99,3,2,2.862,0.763675323681471,-1.682719685
PH-F-Co,1.045,5.15588920034348,2.5625,0.667960054655339,11.75,1.88,1753.99,2.5,2,2.862,0.226274169979695,-0.816048235
PH-F-Cr,1.155,5.19422435659491,2.5075,0.739616569076971,15.125,1.66,2165.99,2.5,2,2.862,0.381837661840736,-0.897074515
PH-F-Fe,1.07,5.86494583367191,2.55,0.685139312535294,12.875,1.83,1796.99,2.5,2,2.862,0.261629509039023,-0.6759862775
PH-F-Ga,1.08,6.39719929539551,2.545,0.691867378684938,7,1.81,303.29,2.5,1.75,2.862,0.275771644662754,-0.6351649725
PH-F-Gd,1.385,5.64809761833488,2.3925,0.855156292905333,23.375,1.2,1571.99,3,2,2.862,0.707106781186548,-1.5176545125
PH-F-In,1.095,5.84998417216357,2.5375,0.701802720570113,6.75,1.78,415.74,2.75,1.75,2.862,0.29698484809835,-0.68125809
PH-F-Ir,0.885,4.95506402817499,2.6425,0.551131362113503,11,2.19,2724.99,3,2,2.862,0,-0.814975775
PH-F-La,1.435,6.18985507058346,2.3675,0.874267670405572,28.625,1.1,1178.99,3,2,2.862,0.777817459305202,-1.67743331
PH-F-Lu,1.35,5.71174351203621,2.41,0.840550018252867,18.125,1.27,1921.99,3,2,2.862,0.657609306503489,-1.5898050425
PH-F-Nd,1.415,5.21318154782662,2.3775,0.866866114605718,26.375,1.14,1279.99,3,2,2.862,0.749533188057741,-1.6094933375
PH-F-Rh,0.845,5.56646626184403,2.6625,0.551131362113503,11.375,2.19,2222.99,2.75,2,2.862,0.056568542494924,-0.956810905
PH-F-Ru,0.885,5.48236777640971,2.6425,0.551131362113503,12.5,2.19,2592.99,2.75,2,2.862,0,-0.6656608975
PH-F-Sc,1.305,7.23577870180216,2.4325,0.820234130541532,29.375,1.36,1799.99,2.5,2,2.862,0.5939696961967,-1.55998206
PH-F-Sm,1.4,5.17512777112241,2.385,0.861103329501181,24.875,1.17,1330.99,3,2,2.862,0.728319984622144,-1.611179385
PH-F-Y,1.375,6.82018225477061,2.3975,0.851088036998852,29,1.22,1784.99,2.75,2,2.862,0.692964645562817,-1.63891364
PH-I-Al,0.52,7.19719540973744,2.165,0.240902461029019,8,1.61,919.46,3,1.75,2.635,0.417193000900063,-0.3857980725
PH-I-Bi,0.315,4.31936461848743,2.2675,0.097331587919058,4.75,2.02,530.39,3.75,1.375,2.635,0.127279220613579,-0.015321705
PH-I-Ce,0.765,4.07287266482931,2.0425,0.447277935696606,28.25,1.12,1056.99,3.75,2,2.635,0.763675323681471,-1.0681152275
PH-I-Co,0.385,4.16873994596977,2.2325,0.141097613792152,12.125,1.88,1753.99,3.25,2,2.635,0.226274169979695,-0.0974349025
PH-I-Cr,0.495,4.19973543307017,2.1775,0.221199216928595,15.5,1.66,2165.99,3.25,2,2.635,0.381837661840736,-0.1045488675
PH-I-Fe,0.41,4.74204022385668,2.22,0.158210250834464,13.25,1.83,1796.99,3.25,2,2.635,0.261629509039023,0.085204085
PH-I-Ga,0.42,5.17238815823821,2.215,0.165251669366129,7.75,1.81,372.84,3.25,1.75,2.635,0.275771644662754,-0.14736242
PH-I-Gd,0.725,4.5667098817253,2.0625,0.413099512040662,23.75,1.2,1571.99,3.75,2,2.635,0.707106781186548,0.070769875
PH-I-In,0.435,4.72994312991919,2.2075,0.176012566668297,7.5,1.78,415.74,3.5,1.75,2.635,0.29698484809835,-0.2275976375
PH-I-Ir,0.225,4.00636486674594,2.3125,0.053727787248697,11.375,2.19,2724.99,3.75,2,2.635,0,-0.2424568
PH-I-La,0.775,5.00474216761403,2.0375,0.455779073674793,29,1.1,1178.99,3.75,2,2.635,0.777817459305202,-1.0258080625
PH-I-Lu,0.69,4.61817009918925,2.08,0.383085599679248,18.5,1.27,1921.99,3.75,2,2.635,0.657609306503489,-0.9251406925
PH-I-Nd,0.755,4.21506307051159,2.0475,0.438756263556765,26.75,1.14,1279.99,3.75,2,2.635,0.749533188057741,-0.960181465
PH-I-Rh,0.185,4.50070770762419,2.3325,0.053727787248697,11.75,2.19,2222.99,3.5,2,2.635,0.056568542494924,-0.32171025
PH-I-Ru,0.225,4.43271076238296,2.3125,0.053727787248697,12.875,2.19,2592.99,3.5,2,2.635,0,-0.0473291
PH-I-Sc,0.645,5.85041271103934,2.1025,0.344593745673159,29.75,1.36,1799.99,3.25,2,2.635,0.5939696961967,-0.86378456
PH-I-Sm,0.74,4.18429508988251,2.055,0.425942090430698,25.25,1.17,1330.99,3.75,2,2.635,0.728319984622144,-0.95485283
PH-I-Y,0.715,5.51438657804406,2.0675,0.40452745776073,29.375,1.22,1784.99,3.5,2,2.635,0.692964645562817,-0.9892355425
PH-NC-Al,0.696666666666667,8.16383038163188,2.318,0.400239577896362,5.12,1.61,3808.99,2.2,1.04,4.0822,0.410121933088197,0.246293838
PH-NC-Bi,0.658333333333333,4.89948627128353,2.4,0.229025515499885,4,2.02,3808.99,2.8,0.96,4.0822,0.101159939369957,0.533228602
PH-NC-Ce,0.941666666666667,4.61988868006357,2.22,0.602118079548795,21.92,1.12,3808.99,2.8,1.28,4.0822,0.756604255869606,-0.279356033999997
PH-NC-Co,0.705,4.72863162475562,2.372,0.285662686264043,8.72,1.88,3808.99,2.4,1.28,4.0822,0.181934053986603,0.330165886
PH-NC-Cr,0.671666666666667,4.76379002811665,2.328,0.378798640994549,11.04,1.66,3808.99,2.4,1.28,4.0822,0.37476659402887,0.331343278
PH-NC-Fe,0.586666666666667,5.37893024247537,2.362,0.306514536143557,9.44,1.83,3808.99,2.4,1.28,4.0822,0.254558441227157,0.433034592
PH-NC-Ga,0.596666666666667,5.86707699150252,2.358,0.314923658853183,4.88,1.81,3808.99,2.4,1.04,4.0822,0.268700576850888,0.475796356
PH-NC-Gd,0.901666666666667,5.18005177768094,2.236,0.571043601320927,18.08,1.2,3808.99,2.8,1.28,4.0822,0.700035713374682,0.516636296
PH-NC-In,0.738333333333333,5.36520842204476,2.352,0.327598737602997,4.64,1.78,3808.99,2.6,1.04,4.0822,0.239652526240249,0.430016416
PH-NC-Ir,0.401666666666667,4.54444840761052,2.436,0.165251669366129,8.24,2.19,3808.99,2.8,1.28,4.0822,0.007071067811866,0.292403164
PH-NC-La,0.951666666666667,5.67691494174564,2.216,0.609723571536479,22.56,1.1,3808.99,2.8,1.28,4.0822,0.770746391493337,-0.31252915
PH-NC-Lu,0.866666666666667,5.23842347149506,2.25,0.543069966787304,13.6,1.27,3808.99,2.8,1.28,4.0822,0.650538238691624,-0.225920988
PH-NC-Nd,0.931666666666667,4.78117627721774,2.224,0.59444549493668,20.64,1.14,3808.99,2.8,1.28,4.0822,0.742462120245875,-0.254919004
PH-NCO-Al,1.01,7.44773139339492,2.505,0.567089816109359,5,1.61,3808.99,2.16666666666667,1.16666666666667,3.40183333333333,0.337786915081091,-0.4040086017
PH-NCO-Bi,0.873333333333333,4.46972266795819,2.57333333333333,0.395951025061975,3.83333333333333,2.02,3808.99,2.66666666666667,1,3.40183333333333,0.101159939369957,-0.10355974
PH-NCO-Ce,1.17333333333333,4.21465027420394,2.42333333333333,0.739616569076971,19.2222222222222,1.12,3808.99,2.66666666666667,1.33333333333333,3.40183333333333,0.620671679177754,-0.70602356
PH-NCO-Co,0.92,4.31385471686548,2.55,0.455779073674793,8.22222222222222,1.88,3808.99,2.33333333333333,1.33333333333333,3.40183333333333,0.181934053986603,-0.3500540267
PH-NCO-Cr,0.993333333333333,4.3459291638117,2.51333333333333,0.547107278760105,10.2222222222222,1.66,3808.99,2.33333333333333,1.33333333333333,3.40183333333333,0.308922859842604,-0.3812920683
PH-NCO-Fe,0.936666666666666,4.90711170578697,2.54166666666667,0.476922164006862,8.88888888888889,1.83,3808.99,2.33333333333333,1.33333333333333,3.40183333333333,0.210792156716832,-0.253716505
PH-NCO-Ga,0.943333333333333,5.35244014811878,2.53833333333333,0.485327755826721,4.83333333333333,1.81,3808.99,2.33333333333333,1.16666666666667,3.40183333333333,0.222336081942031,-0.219584645
PH-NCO-Gd,1.14666666666667,4.72567807518972,2.43666666666667,0.714753054942695,15.8888888888889,1.2,3808.99,2.66666666666667,1.33333333333333,3.40183333333333,0.574485276863849,-0.7397083533
PH-NCO-In,0.953333333333333,4.89459350930098,2.53333333333333,0.497871893693153,4.66666666666667,1.78,3808.99,2.5,1.16666666666667,3.40183333333333,0.239652526240249,-0.2253484433
PH-NCO-Ir,0.813333333333333,4.14582732477826,2.60333333333333,0.323366153838271,7.77777777777778,2.19,3808.99,2.66666666666667,1.33333333333333,3.40183333333333,0.005773502691896,-0.36605764
PH-NCO-La,1.18,5.1789583630252,2.42,0.745613369000596,19.7777777777778,1.1,3808.99,2.66666666666667,1.33333333333333,3.40183333333333,0.63221831672295,-0.7922428783
PH-NCO-Lu,1.12333333333333,4.77892963434547,2.44833333333333,0.691867378684938,12,1.27,3808.99,2.66666666666667,1.33333333333333,3.40183333333333,0.534072404579504,-0.7355325033
PH-NCO-Nd,1.16666666666667,4.3617903597443,2.42666666666667,0.733531702186476,18.1111111111111,1.14,3808.99,2.66666666666667,1.33333333333333,3.40183333333333,0.609125055578355,-0.7524512883
PH-NCO-Rh,0.786666666666666,4.65737835063033,2.61666666666667,0.323366153838271,8,2.19,3808.99,2.5,1.33333333333333,3.40183333333333,0.049328828623162,-0.444573125
PH-NCO-Ru,0.813333333333333,4.58701441650081,2.60333333333333,0.323366153838271,8.66666666666667,2.19,3808.99,2.5,1.33333333333333,3.40183333333333,0.005773502691896,-0.251507885
PH-NCO-Sc,1.09333333333333,6.05406688741189,2.46333333333333,0.660947392745558,20.3333333333333,1.36,3808.99,2.33333333333333,1.33333333333333,3.40183333333333,0.482113402980392,-0.7575454
PH-NCO-Sm,1.15666666666667,4.32995133882061,2.43166666666667,0.724240177376075,17,1.17,3808.99,2.66666666666667,1.33333333333333,3.40183333333333,0.59180514811324,-0.760307145
PH-NCO-Y,1.14,5.70634360949116,2.44,0.708320592678053,20.0555555555556,1.22,3808.99,2.5,1.33333333333333,3.40183333333333,0.562938717801503,-0.7929924533
PH-NC-Rh,0.361666666666667,5.10518503813801,2.452,0.165251669366129,8.48,2.19,3808.99,2.6,1.28,4.0822,0.063639610306789,0.196567058
PH-NC-Ru,0.401666666666667,5.02805561538155,2.436,0.165251669366129,9.2,2.19,3808.99,2.6,1.28,4.0822,0.007071067811866,0.427656488
PH-NCS-Al,0.723333333333333,7.38668166893143,2.36166666666667,0.400239577896362,5.16666666666667,1.61,3808.99,2.33333333333333,1.16666666666667,3.76883333333333,0.337786915081091,-0.0088441345
PH-NCS-Bi,0.586666666666666,4.4330839490123,2.43,0.229025515499885,4,2.02,3808.99,2.83333333333333,1,3.76883333333333,0.101159939369957,0.2466461038
PH-NC-Sc,0.821666666666667,6.63616510548665,2.268,0.506187801966654,23.2,1.36,3808.99,2.4,1.28,4.0822,0.586898628384834,-0.1826599
PH-NCS-Ce,0.886666666666666,4.18010240662398,2.28,0.602118079548795,19.2777777777778,1.12,3808.99,2.83333333333333,1.33333333333333,3.76883333333333,0.620671679177754,-0.3415825878
PH-NCS-Co,0.633333333333333,4.27849366154149,2.40666666666667,0.285662686264043,8.33333333333333,1.88,3808.99,2.5,1.33333333333333,3.76883333333333,0.181934053986603,0.1041362105
PH-NCS-Cr,0.706666666666666,4.31030519135966,2.37,0.378798640994549,10.3333333333333,1.66,3808.99,2.5,1.33333333333333,3.76883333333333,0.308922859842604,0.1442711355
PH-NCS-Fe,0.65,4.86688766953675,2.39833333333333,0.306514536143557,9,1.83,3808.99,2.5,1.33333333333333,3.76883333333333,0.210792156716832,0.2084700355
PH-NCS-Ga,0.656666666666666,5.30856571455103,2.395,0.314923658853183,5,1.81,3808.99,2.5,1.16666666666667,3.76883333333333,0.222336081942031,0.1845028522
PH-NCS-Gd,0.86,4.68694126673697,2.29333333333333,0.571043601320927,15.9444444444444,1.2,3808.99,2.83333333333333,1.33333333333333,3.76883333333333,0.574485276863849,-0.3804016262
PH-NCS-In,0.666666666666666,4.85447208583389,2.39,0.327598737602997,4.83333333333333,1.78,3808.99,2.66666666666667,1.16666666666667,3.76883333333333,0.239652526240249,0.1455836072
PH-NCS-Ir,0.526666666666666,4.11184360510823,2.46,0.165251669366129,7.88888888888889,2.19,3808.99,2.83333333333333,1.33333333333333,3.76883333333333,0.005773502691896,0.0331409588
PH-NCS-La,0.893333333333333,5.13650597526174,2.27666666666667,0.609723571536479,19.8333333333333,1.1,3808.99,2.83333333333333,1.33333333333333,3.76883333333333,0.63221831672295,-0.4466163945
PH-NCS-Lu,0.836666666666666,4.73975631807014,2.305,0.543069966787304,12.1111111111111,1.27,3808.99,2.83333333333333,1.33333333333333,3.76883333333333,0.534072404579504,-0.3954600428
PH-NC-Sm,0.916666666666667,4.74627593607912,2.23,0.582814787035019,19.36,1.17,3808.99,2.8,1.28,4.0822,0.721248916810279,-0.238839642
PH-NCS-Nd,0.88,4.32603637164183,2.28333333333333,0.59444549493668,18.1666666666667,1.14,3808.99,2.83333333333333,1.33333333333333,3.76883333333333,0.609125055578355,-0.4038011012
PH-NCS-Rh,0.5,4.61920140116618,2.47333333333333,0.165251669366129,8.11111111111111,2.19,3808.99,2.66666666666667,1.33333333333333,3.76883333333333,0.049328828623162,-0.0362297128
PH-NCS-Ru,0.526666666666666,4.54941424653687,2.46,0.165251669366129,8.77777777777778,2.19,3808.99,2.66666666666667,1.33333333333333,3.76883333333333,0.005773502691896,0.1451680205
PH-NCS-Sc,0.806666666666666,6.00444115632178,2.32,0.506187801966654,20.3888888888889,1.36,3808.99,2.5,1.33333333333333,3.76883333333333,0.482113402980392,-0.3466162695
PH-NCS-Sm,0.87,4.29445833803788,2.28833333333333,0.582814787035019,17.0555555555556,1.17,3808.99,2.83333333333333,1.33333333333333,3.76883333333333,0.59180514811324,-0.4049675578
PH-NCS-Y,0.853333333333333,5.65956819740227,2.29666666666667,0.563121432466778,20.1111111111111,1.22,3808.99,2.66666666666667,1.33333333333333,3.76883333333333,0.562938717801503,-0.4312241728
PH-NC-Y,0.891666666666667,6.25500825238001,2.24,0.563121432466778,22.88,1.22,3808.99,2.6,1.28,4.0822,0.685893577750951,-0.28395732
PH-NO-Al,0.993333333333333,7.73894921714397,2.496,0.567089816109359,4.88,1.61,919.46,2.2,1.36,3.183,0.410121933088197,0.02848388
PH-NO-Bi,0.788333333333333,4.6444957417131,2.578,0.395951025061975,2.8,2.02,530.39,2.8,1.04,3.183,0.120208152801713,0.324213272
PH-NO-Ce,1.23833333333333,4.37944962260761,2.398,0.739616569076971,22.72,1.12,1056.99,2.8,1.6,3.183,0.756604255869606,-0.58222479
PH-NO-Co,0.858333333333333,4.48253311250813,2.55,0.455779073674793,8.96,1.88,1753.99,2.4,1.6,3.183,0.21920310216783,0.010751346
PH-NO-Cr,0.96,4.51586171996903,2.506,0.547107278760105,11.84,1.66,2165.99,2.4,1.6,3.183,0.381837661840736,-0.023173464
PH-NO-Fe,0.883333333333333,5.09898736783356,2.54,0.476922164006862,9.92,1.83,1796.99,2.4,1.6,3.183,0.254558441227157,0.041200926
PH-NO-Ga,0.893333333333333,5.56172884146029,2.536,0.485327755826721,4.72,1.81,303.29,2.4,1.36,3.183,0.268700576850888,0.18386447
PH-NO-Gd,1.19833333333333,4.91045940148941,2.414,0.714753054942695,18.88,1.2,1571.99,2.8,1.6,3.183,0.700035713374682,-0.511547802
PH-NO-In,0.908333333333333,5.08597969049154,2.53,0.497871893693153,4.56,1.78,415.74,2.6,1.36,3.183,0.289913780286484,0.200577828
PH-NO-Ir,0.69,4.30793558934753,2.614,0.323366153838271,8.32,2.19,2724.99,2.8,1.6,3.183,0,0.027809514
PH-NO-La,1.24833333333333,5.38146365008547,2.394,0.745613369000596,23.36,1.1,1178.99,2.8,1.6,3.183,0.770746391493337,-0.580105518
PH-NO-Lu,1.16333333333333,4.9657931790214,2.428,0.691867378684938,14.4,1.27,1921.99,2.8,1.6,3.183,0.650538238691624,-0.409852372
PH-NO-Nd,1.22833333333333,4.53234311320972,2.402,0.733531702186476,21.44,1.14,1279.99,2.8,1.6,3.183,0.742462120245875,-0.395613246
PH-NO-Rh,0.658333333333333,4.83948905199764,2.63,0.323366153838271,8.64,2.19,2222.99,2.6,1.6,3.183,0.063639610306789,-0.07057507
PH-NO-Ru,0.69,4.76637377914694,2.614,0.323366153838271,9.6,2.19,2592.99,2.6,1.6,3.183,0,0.035389804
PH-NO-Sc,1.11833333333333,6.29079027211222,2.446,0.660947392745558,24,1.36,1799.99,2.4,1.6,3.183,0.586898628384834,-0.408673758
PH-NO-Sm,1.21333333333333,4.49925913729317,2.408,0.724240177376075,20.16,1.17,1330.99,2.8,1.6,3.183,0.721248916810279,-0.375908228
PH-NO-Y,1.18833333333333,5.92947047588085,2.418,0.708320592678053,23.68,1.22,1784.99,2.6,1.6,3.183,0.685893577750951,-0.4155722
PH-OCN-Al,1.01,7.8495205733141,2.505,0.567089816109359,5,1.61,3808.99,2.16666666666667,1.16666666666667,3.40183333333333,0.337786915081091,-0.154107085
PH-OCN-Bi,0.873333333333333,4.71085464632381,2.57333333333333,0.395951025061975,3.83333333333333,2.02,3808.99,2.66666666666667,1,3.40183333333333,0.101159939369957,0.0389307733
PH-OCN-Ce,1.17333333333333,4.44202164245983,2.42333333333333,0.739616569076971,19.2222222222222,1.12,3808.99,2.66666666666667,1.33333333333333,3.40183333333333,0.620671679177754,-0.626140106666665
PH-OCN-Co,0.92,4.54657795263055,2.55,0.455779073674793,8.22222222222222,1.88,3808.99,2.33333333333333,1.33333333333333,3.40183333333333,0.181934053986603,-0.08529771
PH-OCN-Cr,0.993333333333333,4.58038274739064,2.51333333333333,0.547107278760105,10.2222222222222,1.66,3808.99,2.33333333333333,1.33333333333333,3.40183333333333,0.308922859842604,-0.1227253483
PH-OCN-Fe,0.936666666666666,5.17183988728242,2.54166666666667,0.476922164006862,8.88888888888889,1.83,3808.99,2.33333333333333,1.33333333333333,3.40183333333333,0.210792156716832,0.0203883783
PH-OCN-Ga,0.943333333333333,5.64119284663666,2.53833333333333,0.485327755826721,4.83333333333333,1.81,3808.99,2.33333333333333,1.16666666666667,3.40183333333333,0.222336081942031,0.0144653333
PH-OCN-Gd,1.14666666666667,4.98061830035364,2.43666666666667,0.714753054942695,15.8888888888889,1.2,3808.99,2.66666666666667,1.33333333333333,3.40183333333333,0.574485276863849,-0.5401745733
PH-OCN-In,0.953333333333333,5.15864636086917,2.53333333333333,0.497871893693153,4.66666666666667,1.78,3808.99,2.5,1.16666666666667,3.40183333333333,0.239652526240249,-0.0174600433
PH-OCN-Ir,0.813333333333333,4.36948584210698,2.60333333333333,0.323366153838271,7.77777777777778,2.19,3808.99,2.66666666666667,1.33333333333333,3.40183333333333,0.005773502691896,-0.093395195
PH-OCN-La,1.18,5.45835209026957,2.42,0.745613369000596,19.7777777777778,1.1,3808.99,2.66666666666667,1.33333333333333,3.40183333333333,0.63221831672295,-0.644827455
PH-OCN-Lu,1.12333333333333,5.03674266723466,2.44833333333333,0.691867378684938,12,1.27,3808.99,2.66666666666667,1.33333333333333,3.40183333333333,0.534072404579504,-0.6156973867
PH-OCN-Nd,1.16666666666667,4.59709962092084,2.42666666666667,0.733531702186476,18.1111111111111,1.14,3808.99,2.66666666666667,1.33333333333333,3.40183333333333,0.609125055578355,-0.578216685
PH-OCN-Rh,0.786666666666666,4.90863395172957,2.61666666666667,0.323366153838271,8,2.19,3808.99,2.5,1.33333333333333,3.40183333333333,0.049328828623162,-0.1858973283
PH-OCN-Ru,0.813333333333333,4.83447403384386,2.60333333333333,0.323366153838271,8.66666666666667,2.19,3808.99,2.5,1.33333333333333,3.40183333333333,0.005773502691896,-0.0081776383
PH-OCN-Sc,1.09333333333333,6.38067084791809,2.46333333333333,0.660947392745558,20.3333333333333,1.36,3808.99,2.33333333333333,1.33333333333333,3.40183333333333,0.482113402980392,-0.535588925
PH-OCN-Sm,1.15666666666667,4.56354295291367,2.43166666666667,0.724240177376075,17,1.17,3808.99,2.66666666666667,1.33333333333333,3.40183333333333,0.59180514811324,-0.5770717667
PH-OCN-Y,1.14,6.01418864284291,2.44,0.708320592678053,20.0555555555556,1.22,3808.99,2.5,1.33333333333333,3.40183333333333,0.562938717801503,-0.5948466633
PH-SCN-Al,0.723333333333333,7.26145948341094,2.36166666666667,0.400239577896362,5.16666666666667,1.61,3808.99,2.33333333333333,1.16666666666667,3.76883333333333,0.337786915081091,0.0926303038
PH-SCN-Bi,0.586666666666666,4.35793241472784,2.43,0.229025515499885,4,2.02,3808.99,2.83333333333333,1,3.76883333333333,0.101159939369957,0.4838150555