Compound,mean EN difference,geom-mean_eta_both,MagpieData mean Electronegativity,max ionic char,MagpieData avg_dev MendeleevNumber,MagpieData minimum Electronegativity,MagpieData range MeltingT,MagpieData mean Row,MagpieData avg_dev NpValence,MagpieData mean GSbandgap,std_dev EN difference,Formation_energy
OCN-NCS-Sr,1.00833333333333,6.78937209466597,2.59285714285714,0.787757332306276,18.1632653061225,0.95,3768.2,2.57142857142857,1.06122448979592,3.43828571428571,1.13137084989848,-0.662478611
OCN-NCS-Zn,0.775,5.91890897839313,2.69285714285714,0.551131362113503,5.10204081632653,1.65,3768.2,2.42857142857143,1.06122448979592,3.43828571428571,0.636396103067893,-0.0015199139
OCN-NC-Zn,0.923333333333333,6.5416341341957,2.71166666666667,0.551131362113503,4.66666666666667,1.65,3768.2,2.33333333333333,1,3.64433333333333,0.636396103067893,0.1962895583
OCN-NO-Ba,1.52,6.56250548752376,2.73333333333333,0.803211356141508,20.5555555555556,0.89,3768.2,2.66666666666667,1.11111111111111,2.895,1.17379725676967,-0.7154465667
OCN-NO-Be,1.18,11.4395670366077,2.84666666666667,0.582814787035019,5.55555555555556,1.57,3768.2,2,1.11111111111111,2.895,0.692964645562816,-0.1754052567
OCN-NO-Ca,1.465,7.57684550226447,2.75166666666667,0.774266459580783,21.1111111111111,1,3768.2,2.33333333333333,1.11111111111111,2.895,1.09601551083915,-0.6707744167
OCN-NO-Cd,1.12,6.10396588829422,2.86666666666667,0.534956811865944,4.88888888888889,1.69,3768.2,2.5,1.11111111111111,2.895,0.608111831820431,0.0757615867
OCN-NO-Co,1.025,5.65723614054642,2.89833333333333,0.455779073674793,7.55555555555556,1.88,3768.2,2.33333333333333,1.11111111111111,2.895,0.473761543394987,0.038132095
OCN-NO-Cu,1.015,5.68014018036633,2.90166666666667,0.447277935696606,6.22222222222222,1.9,3768.2,2.33333333333333,1.11111111111111,2.895,0.459619407771256,0.0753315083
OCN-NO-Fe,1.05,5.44219346378161,2.89,0.476922164006862,8.22222222222222,1.83,3768.2,2.33333333333333,1.11111111111111,2.895,0.509116882454314,-0.0526497
OCN-NO-Mg,1.31,8.9528397301661,2.80333333333333,0.678328679969553,5.33333333333333,1.31,3768.2,2.16666666666667,1.11111111111111,2.895,0.876812408671319,-0.4352676433
OCN-NO-Mn,1.19,5.89966482822578,2.84333333333333,0.590584603914435,8.88888888888889,1.55,3768.2,2.33333333333333,1.11111111111111,2.895,0.707106781186547,-0.3084324
OCN-NO-Ni,1.01,5.72540216977344,2.90333333333333,0.443019472906049,6.88888888888889,1.91,3768.2,2.33333333333333,1.11111111111111,2.895,0.45254833995939,-0.0722665117
OCN-NO-Pb,0.8,5.72540216977344,2.97333333333333,0.265103054644222,2.88888888888889,2.33,3768.2,2.66666666666667,0.666666666666667,2.895,0.15556349186104,0.0717687217
OCN-NO-Pd,0.865,5.31499255583255,2.95166666666667,0.319140970908075,6.66666666666667,2.2,3768.2,2.5,1.11111111111111,2.895,0.247487373415291,0.09723211
OCN-NO-Pt,0.825,5.61086326679973,2.965,0.285662686264043,6.44444444444444,2.28,3768.2,2.66666666666667,1.11111111111111,2.895,0.190918830920368,0.2297121983
OCN-NO-Sr,1.49,7.11315421617664,2.74333333333333,0.787757332306276,20.8333333333333,0.95,3768.2,2.5,1.11111111111111,2.895,1.13137084989848,-0.6829080283
OCN-NO-Zn,1.14,6.20117910283635,2.86,0.551131362113503,5.11111111111111,1.65,3768.2,2.33333333333333,1.11111111111111,2.895,0.636396103067893,0.0026339217
OH-Br-Ba,1.655,6.70217498259205,2.3725,0.803211356141508,30.875,0.89,985.99,3.25,2.25,2.3275,0.926309883354377,-2.06920485
OH-Br-Be,1.315,11.6830348028199,2.5425,0.582814787035019,9.125,1.57,1545.99,2.25,2.25,2.3275,0.445477272147525,-1.144002435
OH-Br-Ca,1.6,7.73810314807119,2.4,0.774266459580783,31.625,1,1100.99,2.75,2.25,2.3275,0.848528137423857,-2.109980865
OH-Br-Cd,1.255,6.23387630667831,2.5725,0.534956811865944,8,1.69,580.21,3,2.25,2.3275,0.360624458405139,-1.0801240275
OH-Br-Co,1.16,5.77763883075893,2.62,0.455779073674793,12.5,1.88,1753.99,2.75,2.25,2.3275,0.226274169979695,-0.8726396225
OH-Br-Cu,1.15,5.8010303361791,2.625,0.447277935696606,10.25,1.9,1343.76,2.75,2.25,2.3275,0.212132034355964,-0.608110435
OH-Br-Fe,1.185,5.55801941083726,2.6075,0.476922164006862,13.625,1.83,1796.99,2.75,2.25,2.3275,0.261629509039023,-0.8876230875
OH-Br-Mg,1.445,9.14338259628894,2.4775,0.678328679969553,8.75,1.31,908.99,2.5,2.25,2.3275,0.629325035256027,-1.7410587725
OH-Br-Mn,1.325,6.02522711677502,2.5375,0.590584603914435,14.75,1.55,1504.99,2.75,2.25,2.3275,0.459619407771256,-1.36760687
OH-Br-Ni,1.145,5.84725563437403,2.6275,0.443019472906049,11.375,1.91,1713.99,2.75,2.25,2.3275,0.205060966544099,-0.943498355
OH-Br-Pb,0.935,5.84725563437403,2.7325,0.319140970908075,4.75,2.2,586.6,3.25,1.75,2.3275,0.091923881554251,-1.0186090625
OH-Br-Pd,1,5.42811129195798,2.7,0.319140970908075,11,2.2,1814.04,3,2.25,2.3275,0,-0.530215295
OH-Br-Pt,0.96,5.73027900532535,2.72,0.319140970908075,10.625,2.2,2027.39,3.25,2.25,2.3275,0.056568542494924,-0.1552286625
OH-Br-Sr,1.625,7.26454314219049,2.3875,0.787757332306276,31.25,0.95,1035.99,3,2.25,2.3275,0.883883476483184,-2.11173572
OH-Br-Zn,1.275,6.33315850548489,2.5625,0.551131362113503,8.375,1.65,678.67,2.75,2.25,2.3275,0.388908729652601,-1.06755762
OH-Cl-Ba,1.755,6.95822740784008,2.4225,0.803211356141508,30.75,0.89,985.99,3,2.25,2.5865,0.926309883354377,-2.1739781725
OH-Cl-Be,1.415,12.1293778785064,2.5925,0.582814787035019,9,1.57,1545.99,2,2.25,2.5865,0.445477272147525,-1.406006685
OH-Cl-Ca,1.7,8.03373256434715,2.45,0.774266459580783,31.5,1,1100.99,2.5,2.25,2.5865,0.848528137423857,-2.24293546
OH-Cl-Cd,1.355,6.47203767237931,2.6225,0.534956811865944,7.875,1.69,580.21,2.75,2.25,2.5865,0.360624458405139,-1.1811162475
OH-Cl-Co,1.26,5.99836992755445,2.67,0.455779073674793,12.375,1.88,1753.99,2.5,2.25,2.5865,0.226274169979695,-1.0236175675
OH-Cl-Cu,1.25,6.02265509088545,2.675,0.447277935696606,10.125,1.9,1343.76,2.5,2.25,2.5865,0.212132034355964,-0.7187375425
OH-Cl-Fe,1.285,5.77036008433756,2.6575,0.476922164006862,13.5,1.83,1796.99,2.5,2.25,2.5865,0.261629509039023,-1.04282683
OH-Cl-Mg,1.545,9.49269983954673,2.5275,0.678328679969553,8.625,1.31,908.99,2.25,2.25,2.5865,0.629325035256027,-1.9285668025
OH-Cl-Mn,1.425,6.2554171699932,2.5875,0.590584603914435,14.625,1.55,1504.99,2.5,2.25,2.5865,0.459619407771256,-1.4513140625
OH-Cl-Ni,1.245,6.07064639783745,2.6775,0.443019472906049,11.25,1.91,1713.99,2.5,2.25,2.5865,0.205060966544099,-1.1001194775
OH-Cl-Pb,1.035,6.07064639783745,2.7825,0.319140970908075,4.5,2.2,586.6,3,1.75,2.5865,0.091923881554251,-1.081002885
OH-Cl-Pd,1.1,5.63548890660279,2.75,0.319140970908075,10.875,2.2,1814.04,2.75,2.25,2.5865,0,-0.6116942775
OH-Cl-Pt,1.06,5.94920074945653,2.77,0.319140970908075,10.5,2.2,2027.39,3,2.25,2.5865,0.056568542494924,-0.194839445
OH-Cl-Sr,1.725,7.54208049308154,2.4375,0.787757332306276,31.125,0.95,1035.99,2.75,2.25,2.5865,0.883883476483184,-2.229175655
OH-Cl-Zn,1.375,6.57511288581986,2.6125,0.551131362113503,8.25,1.65,678.67,2.5,2.25,2.5865,0.388908729652601,-1.221531645
OH-CN-Ba,1.36,7.24254644205403,2.424,0.803211356141508,24.16,0.89,3808.99,2.6,1.44,3.7572,0.875042856093346,-0.992695998
OH-CN-Be,1.13333333333333,12.6249944776632,2.56,0.582814787035019,7.2,1.57,3808.99,1.8,1.44,3.7572,0.496621921921831,-0.375845732
OH-CN-Ca,1.32333333333333,8.36199764537263,2.446,0.774266459580783,24.8,1,3808.99,2.2,1.44,3.7572,0.812916559883813,-1.02809248
OH-CN-Cd,1.09333333333333,6.73649058438587,2.584,0.534956811865944,6.48,1.69,3808.99,2.4,1.44,3.7572,0.432473505932252,-0.213971718
OH-CN-Co,1.03,6.24346837644083,2.622,0.455779073674793,9.36,1.88,3808.99,2.2,1.44,3.7572,0.335111921602321,-0.11086704
OH-CN-Cu,1.02333333333333,6.26874585200587,2.626,0.447277935696606,7.92,1.9,3808.99,2.2,1.44,3.7572,0.325320354932386,0.108477464
OH-CN-Fe,1.04666666666667,6.00614185893105,2.612,0.476922164006862,10.08,1.83,3808.99,2.2,1.44,3.7572,0.360046293319808,-0.131677724
OH-CN-Mg,1.22,9.88057955262163,2.508,0.678328679969553,6.96,1.31,3808.99,2,1.44,3.7572,0.639296488336984,-0.777917334
OH-CN-Mn,1.14,6.51101878576878,2.556,0.590584603914435,10.8,1.55,3808.99,2.2,1.44,3.7572,0.507444578254611,-0.405816696
OH-CN-Ni,1.02,6.31869812419275,2.628,0.443019472906049,8.64,1.91,3808.99,2.2,1.44,3.7572,0.320468407179241,-0.152420992
OH-CN-Pb,0.88,6.31869812419275,2.712,0.319140970908075,4.56,2.2,3808.99,2.6,1.04,3.7572,0.176918060129541,-0.140884632
OH-CN-Pd,0.923333333333333,5.86575973124462,2.686,0.319140970908075,8.4,2.2,3808.99,2.4,1.44,3.7572,0.202072594216369,0.17514573
OH-CN-Pt,0.896666666666667,6.19229010430064,2.702,0.319140970908075,8.16,2.2,3808.99,2.6,1.44,3.7572,0.183393929379719,0.293477868
OH-CN-Sr,1.34,7.85025625625661,2.436,0.787757332306276,24.48,0.95,3808.99,2.4,1.44,3.7572,0.841130192063036,-1.024614824
OH-CN-Zn,1.10666666666667,6.84377753788882,2.576,0.551131362113503,6.72,1.65,3808.99,2.2,1.44,3.7572,0.453688586293873,-0.24301042
OH-F-Ba,2.165,7.94630710703415,2.6275,0.908097311920564,30.625,0.89,985.99,2.75,2.25,2.45575,0.926309883354377,-2.6264116875
OH-F-Be,1.825,13.8517694220915,2.7975,0.76590423612167,8.875,1.57,1545.99,1.75,2.25,2.45575,0.445477272147525,-2.19456238
OH-F-Ca,2.11,9.17453575894263,2.655,0.891401751542897,31.375,1,1100.99,2.25,2.25,2.45575,0.848528137423857,-2.7716617675
OH-F-Cd,1.765,7.39107763208111,2.8275,0.730456367481674,7.75,1.69,580.21,2.5,2.25,2.45575,0.360624458405139,-1.5575197475
OH-F-Co,1.67,6.85014829096274,2.875,0.667960054655339,12.25,1.88,1753.99,2.25,2.25,2.45575,0.226274169979695,-1.4905778025
OH-F-Cu,1.66,6.87788198729972,2.88,0.660947392745558,10,1.9,1343.76,2.25,2.25,2.45575,0.212132034355964,-1.1238812425
OH-F-Fe,1.695,6.58976067621095,2.8625,0.685139312535294,13.375,1.83,1796.99,2.25,2.25,2.45575,0.261629509039023,-1.50035802
OH-F-Mg,1.955,10.8406787790437,2.7325,0.831736655486387,8.5,1.31,908.99,2,2.25,2.45575,0.629325035256027,-2.5584281875
OH-F-Mn,1.835,7.14369666322967,2.7925,0.77150135530994,14.5,1.55,1504.99,2.25,2.25,2.45575,0.459619407771256,-1.923483265
OH-F-Ni,1.655,6.93268813851559,2.8825,0.657411410756611,11.125,1.91,1713.99,2.25,2.25,2.45575,0.205060966544099,-1.551538505
OH-F-Pb,1.445,6.93268813851559,2.9875,0.547107278760105,4.25,2.2,586.6,2.75,1.75,2.45575,0.091923881554251,-1.4735942
OH-F-Pd,1.51,6.43573757013074,2.955,0.547107278760105,10.75,2.2,1814.04,2.5,2.25,2.45575,0,-0.7572072325
OH-F-Pt,1.47,6.79399700896724,2.975,0.547107278760105,10.375,2.2,2027.39,2.75,2.25,2.45575,0.056568542494924,-0.430522455
OH-F-Sr,2.135,8.61306828754552,2.6425,0.89926127549485,31,0.95,1035.99,2.5,2.25,2.45575,0.883883476483184,-2.7205702075
OH-F-Zn,1.785,7.50878969481117,2.8175,0.742626000251458,8.125,1.65,678.67,2.25,2.25,2.45575,0.388908729652601,-1.6833594375
OH-I-Ba,1.505,6.42490297460812,2.2975,0.803211356141508,31,0.89,985.99,3.5,2.25,2.22875,0.926309883354377,-1.8463879075
OH-I-Be,1.165,11.1997023730434,2.4675,0.582814787035019,9.25,1.57,1545.99,2.5,2.25,2.22875,0.445477272147525,-0.6907043525
OH-I-Ca,1.45,7.41797432370817,2.325,0.774266459580783,31.75,1,1100.99,3,2.25,2.22875,0.848528137423857,-1.83091906
OH-I-Cd,1.105,5.97597802655796,2.4975,0.534956811865944,8.125,1.69,580.21,3.25,2.25,2.22875,0.360624458405139,-0.8316232575
OH-I-Co,1.01,5.53861530120751,2.545,0.455779073674793,12.625,1.88,1753.99,3,2.25,2.22875,0.226274169979695,-0.4708727175
OH-I-Cu,1,5.56103908947698,2.55,0.447277935696606,10.375,1.9,1343.76,3,2.25,2.22875,0.212132034355964,-0.3945445225
OH-I-Fe,1.035,5.32808163594191,2.5325,0.476922164006862,13.75,1.83,1796.99,3,2.25,2.22875,0.261629509039023,-0.400251625
OH-I-Mg,1.295,8.76511672605679,2.4025,0.678328679969553,8.875,1.31,908.99,2.75,2.25,2.22875,0.629325035256027,-1.372989525
OH-I-Mn,1.175,5.77596074793705,2.4625,0.590584603914435,14.875,1.55,1504.99,3,2.25,2.22875,0.459619407771256,-1.047667085
OH-I-Ni,0.995,5.60535202619471,2.5525,0.443019472906049,11.5,1.91,1713.99,3,2.25,2.22875,0.205060966544099,-0.6304574525
OH-I-Pb,0.785,5.60535202619471,2.6575,0.319140970908075,5,2.2,586.6,3.5,1.75,2.22875,0.091923881554251,-0.846185435
OH-I-Pd,0.85,5.20354787465082,2.625,0.319140970908075,11.125,2.2,1814.04,3.25,2.25,2.22875,0,-0.309842855
OH-I-Pt,0.81,5.49321477315573,2.645,0.319140970908075,10.75,2.2,2027.39,3.5,2.25,2.22875,0.056568542494924,-0.1068171825
OH-I-Sr,1.475,6.96400570928957,2.3125,0.787757332306276,31.375,0.95,1035.99,3.25,2.25,2.22875,0.883883476483184,-1.861977025
OH-I-Zn,1.125,6.07115287593072,2.4875,0.551131362113503,8.5,1.65,678.67,3,2.25,2.22875,0.388908729652601,-0.7467523475
OH-NC-Ba,1.36,7.28781353250159,2.424,0.803211356141508,24.16,0.89,3808.99,2.6,1.44,3.7572,0.875042856093346,-1.050855356
OH-NC-Be,1.13333333333333,12.7039027416961,2.56,0.582814787035019,7.2,1.57,3808.99,1.8,1.44,3.7572,0.496621921921831,-0.505008244
OH-NC-Ca,1.32333333333333,8.4142614874845,2.446,0.774266459580783,24.8,1,3808.99,2.2,1.44,3.7572,0.812916559883813,-1.115384882
OH-NC-Cd,1.09333333333333,6.77859474360975,2.584,0.534956811865944,6.48,1.69,3808.99,2.4,1.44,3.7572,0.432473505932252,-0.236387992
OH-NC-Co,1.03,6.28249106686664,2.622,0.455779073674793,9.36,1.88,3808.99,2.2,1.44,3.7572,0.335111921602321,-0.142558534
OH-NC-Cu,1.02333333333333,6.30792653075552,2.626,0.447277935696606,7.92,1.9,3808.99,2.2,1.44,3.7572,0.325320354932386,0.11855303
OH-NC-Fe,1.04666666666667,6.04368122011353,2.612,0.476922164006862,10.08,1.83,3808.99,2.2,1.44,3.7572,0.360046293319808,-0.165729824
OH-NC-Mg,1.22,9.94233477806081,2.508,0.678328679969553,6.96,1.31,3808.99,2,1.44,3.7572,0.639296488336984,-0.895242072
OH-NC-Mn,1.14,6.55171370966596,2.556,0.590584603914435,10.8,1.55,3808.99,2.2,1.44,3.7572,0.507444578254611,-0.466880928
OH-NC-Ni,1.02,6.35819101274889,2.628,0.443019472906049,8.64,1.91,3808.99,2.2,1.44,3.7572,0.320468407179241,-0.201325498
OH-NCO-Ba,1.42666666666667,6.64855528568328,2.59333333333333,0.803211356141508,21.1111111111111,0.89,3808.99,2.5,1.5,3.131,0.875042856093346,-1.4257620917
OH-NCO-Be,1.2,11.5895665202506,2.70666666666667,0.582814787035019,6.66666666666667,1.57,3808.99,1.83333333333333,1.5,3.131,0.496621921921831,-1.05697881
OH-NCO-Ca,1.39,7.67619567079313,2.61166666666667,0.774266459580783,21.6666666666667,1,3808.99,2.16666666666667,1.5,3.131,0.812916559883813,-1.5168757767
OH-NCO-Cd,1.16,6.18400315967767,2.72666666666667,0.534956811865944,6.16666666666667,1.69,3808.99,2.33333333333333,1.5,3.131,0.432473505932252,-0.797090545
OH-NCO-Co,1.09666666666667,5.7314157399327,2.75833333333333,0.455779073674793,8.66666666666667,1.88,3808.99,2.16666666666667,1.5,3.131,0.335111921602321,-0.7378511883
OH-NCO-Cu,1.09,5.7546201052925,2.76166666666667,0.447277935696606,7.33333333333333,1.9,3808.99,2.16666666666667,1.5,3.131,0.325320354932386,-0.520256835
OH-NCO-Fe,1.11333333333333,5.51355335064095,2.75,0.476922164006862,9.33333333333333,1.83,3808.99,2.16666666666667,1.5,3.131,0.360046293319808,-0.7780886383
OH-NCO-Mg,1.28666666666667,9.07023240179128,2.66333333333333,0.678328679969553,6.5,1.31,3808.99,2,1.5,3.131,0.639296488336984,-1.35923048
OH-NCO-Mn,1.20666666666667,5.9770232348043,2.70333333333333,0.590584603914435,10,1.55,3808.99,2.16666666666667,1.5,3.131,0.507444578254611,-1.0518672233
OH-NCO-Ni,1.08666666666667,5.80047558525899,2.76333333333333,0.443019472906049,8,1.91,3808.99,2.16666666666667,1.5,3.131,0.320468407179241,-0.794679165
OH-NCO-Pb,0.946666666666667,5.80047558525899,2.83333333333333,0.319140970908075,4.33333333333333,2.2,3808.99,2.5,1.16666666666667,3.131,0.176918060129541,-0.699350125
OH-NCO-Pd,0.99,5.38468454123634,2.81166666666667,0.319140970908075,7.77777777777778,2.2,3808.99,2.33333333333333,1.5,3.131,0.202072594216369,-0.4273606733
OH-NCO-Pt,0.963333333333333,5.68443480933431,2.825,0.319140970908075,7.55555555555556,2.2,3808.99,2.5,1.5,3.131,0.183393929379719,-0.190091615
OH-NCO-Sr,1.40666666666667,7.20642430726353,2.60333333333333,0.787757332306276,21.3888888888889,0.95,3808.99,2.33333333333333,1.5,3.131,0.841130192063036,-1.48394342
OH-NCO-Zn,1.17333333333333,6.28249106686664,2.72,0.551131362113503,6.33333333333333,1.65,3808.99,2.16666666666667,1.5,3.131,0.453688586293873,-0.8613768683
OH-NC-Pb,0.88,6.35819101274889,2.712,0.319140970908075,4.56,2.2,3808.99,2.6,1.04,3.7572,0.176918060129541,-0.147530254
OH-NC-Pd,0.923333333333333,5.90242168135047,2.686,0.319140970908075,8.4,2.2,3808.99,2.4,1.44,3.7572,0.202072594216369,0.227079262
OH-NC-Pt,0.896666666666667,6.23099292222132,2.702,0.319140970908075,8.16,2.2,3808.99,2.6,1.44,3.7572,0.183393929379719,0.501424724
OH-NCS-Ba,1.14,6.59405647969369,2.45,0.803211356141508,21.1666666666667,0.89,3808.99,2.66666666666667,1.5,3.498,0.875042856093346,-1.0509231578
OH-NCS-Be,0.913333333333333,11.4945658005227,2.56333333333333,0.582814787035019,6.83333333333333,1.57,3808.99,2,1.5,3.498,0.496621921921831,-0.4889133828
OH-NCS-Ca,1.10333333333333,7.613273204088,2.46833333333333,0.774266459580783,21.7222222222222,1,3808.99,2.33333333333333,1.5,3.498,0.812916559883813,-1.1197614628
OH-NCS-Cd,0.873333333333333,6.13331232927065,2.58333333333333,0.534956811865944,6.33333333333333,1.69,3808.99,2.5,1.5,3.498,0.432473505932252,-0.3865341762
OH-NCS-Co,0.81,5.68443480933431,2.615,0.455779073674793,8.77777777777778,1.88,3808.99,2.33333333333333,1.5,3.498,0.335111921602321,-0.2231558928
OH-NCS-Cu,0.803333333333333,5.70744896642306,2.61833333333333,0.447277935696606,7.44444444444444,1.9,3808.99,2.33333333333333,1.5,3.498,0.325320354932386,-0.1096628012
OH-NCS-Fe,0.826666666666667,5.46835825765332,2.60666666666667,0.476922164006862,9.44444444444444,1.83,3808.99,2.33333333333333,1.5,3.498,0.360046293319808,-0.3404292745
OH-NCS-Mg,1,8.99588289055083,2.52,0.678328679969553,6.66666666666667,1.31,3808.99,2.16666666666667,1.5,3.498,0.639296488336984,-0.9030526028
OH-NCS-Mn,0.92,5.92802903746788,2.56,0.590584603914435,10.1111111111111,1.55,3808.99,2.33333333333333,1.5,3.498,0.507444578254611,-0.6036873178
OH-NCS-Ni,0.8,5.75292856489367,2.62,0.443019472906049,8.11111111111111,1.91,3808.99,2.33333333333333,1.5,3.498,0.320468407179241,-0.3415271362
OH-NCS-Pb,0.66,5.75292856489367,2.69,0.319140970908075,4.5,2.2,3808.99,2.66666666666667,1.16666666666667,3.498,0.176918060129541,-0.3254679445
OH-NCS-Pd,0.703333333333333,5.34054579747649,2.66833333333333,0.319140970908075,7.88888888888889,2.2,3808.99,2.5,1.5,3.498,0.202072594216369,-0.0357324878
OH-NCS-Pt,0.676666666666667,5.63783898565191,2.68166666666667,0.319140970908075,7.66666666666667,2.2,3808.99,2.66666666666667,1.5,3.498,0.183393929379719,0.1861939722
OH-NC-Sr,1.34,7.8993216316507,2.436,0.787757332306276,24.48,0.95,3808.99,2.4,1.44,3.7572,0.841130192063036,-1.102492372
OH-NCS-Sr,1.12,7.14735259870063,2.46,0.787757332306276,21.4444444444444,0.95,3808.99,2.5,1.5,3.498,0.841130192063036,-1.1012136712
OH-NCS-Zn,0.886666666666667,6.23099292222133,2.57666666666667,0.551131362113503,6.5,1.65,3808.99,2.33333333333333,1.5,3.498,0.453688586293873,-0.4066114762
OH-NC-Zn,1.10666666666667,6.8865522579806,2.576,0.551131362113503,6.72,1.65,3808.99,2.2,1.44,3.7572,0.453688586293873,-0.289071396
OH-NO-Ba,1.39666666666667,6.90852408679889,2.602,0.803211356141508,24.96,0.89,985.99,2.6,1.76,2.858,1.08352818760443,-1.179399478
OH-NO-Be,1.17,12.0427365074518,2.738,0.582814787035019,6.8,1.57,1545.99,1.8,1.76,2.858,0.737495762699692,-0.865510594
OH-NO-Ca,1.36,7.97634680136463,2.624,0.774266459580783,25.6,1,1100.99,2.2,1.76,2.858,1.0252804494381,-1.247527114
OH-NO-Cd,1.13,6.42580725371572,2.762,0.534956811865944,6.08,1.69,580.21,2.4,1.76,2.858,0.681689078686171,-0.392740944
OH-NO-Co,1.06666666666667,5.95552296542482,2.8,0.455779073674793,9.28,1.88,1753.99,2.2,1.76,2.858,0.599110451697626,-0.4806919
OH-NO-Cu,1.06,5.97963465738175,2.804,0.447277935696606,7.52,1.9,1343.76,2.2,1.76,2.858,0.590931468107766,-0.397979076
OH-NO-Fe,1.08333333333333,5.7291418195433,2.79,0.476922164006862,10.24,1.83,1796.99,2.2,1.76,2.858,0.620026881137692,-0.569587792
OH-NO-Mg,1.25666666666667,9.42489252598567,2.686,0.678328679969553,6.56,1.31,908.99,2,1.76,2.858,0.865120415510658,-1.032625204
OH-NO-Mn,1.17666666666667,6.21073409345327,2.734,0.590584603914435,11.2,1.55,1504.99,2.2,1.76,2.858,0.74701628719415,-0.832299202