Compound,mean EN difference,geom-mean_eta_both,MagpieData mean Electronegativity,max ionic char,MagpieData avg_dev MendeleevNumber,MagpieData minimum Electronegativity,MagpieData range MeltingT,MagpieData mean Row,MagpieData avg_dev NpValence,MagpieData mean GSbandgap,std_dev EN difference,Formation_energy
Te-NO-Cr,1.2,6.44653580777938,2.56,0.547107278760105,14,1.66,2125.2,3.25,1.375,1.72525,0,-0.2476850675
Te-NO-Fe,0.335,7.27896616160762,2.6025,0.476922164006862,11.75,1.83,1756.2,3.25,1.375,1.72525,0.855599205235722,-0.00257062
Te-NO-Ga,0.345,7.939544289208,2.5975,0.485327755826721,5.25,1.81,667.86,3.25,1,1.72525,0.869741340859453,0.130360455
Te-NO-Gd,0.65,7.00983651123965,2.445,0.714753054942695,22.25,1.2,1531.2,3.75,1.375,1.72525,1.30107647738325,-0.7337019675
Te-NO-In,1.3,7.26039728971534,2.59,0.497871893693153,5,1.78,667.86,3.5,1,1.72525,0.226274169979695,0.10116319
Te-NO-Ir,0.66,6.14971466277016,2.695,0.361670071504925,9.875,2.1,2684.2,3.75,1.375,1.72525,0,0.251744805
Te-NO-La,0.7,7.68221001212965,2.42,0.745613369000596,27.5,1.1,1138.2,3.75,1.375,1.72525,1.3717871555019,-0.863932315
Te-NO-Lu,0.615,7.08882723335639,2.4625,0.691867378684938,17,1.27,1881.2,3.75,1.375,1.72525,1.25157900270019,-0.7240414275
Te-NO-Nd,0.68,6.47006351927205,2.43,0.733531702186476,25.25,1.14,1239.2,3.75,1.375,1.72525,1.34350288425444,-0.75959174
Te-NO-Rh,0.11,6.90852408679889,2.715,0.361670071504925,10.25,2.1,2182.2,3.5,1.375,1.72525,0.537401153701776,-0.0081391925
Te-NO-Ru,0.66,6.80414971624557,2.695,0.361670071504925,11.375,2.1,2552.2,3.5,1.375,1.72525,0,0.1142467175
Te-NO-Sc,0.57,8.98030260073591,2.485,0.660947392745558,28.25,1.36,1759.2,3.25,1.375,1.72525,1.1879393923934,-1.0088916875
Te-NO-Sm,0.665,6.42283509452496,2.4375,0.724240177376075,23.75,1.17,1290.2,3.75,1.375,1.72525,1.32228968081884,-0.7228241725
Te-NO-Y,0.64,8.46450713380096,2.45,0.708320592678053,27.875,1.22,1744.2,3.5,1.375,1.72525,1.28693434175952,-0.7848638175
Te-OCN-Al,0.78,11.2054395346094,2.548,0.567089816109359,5.44,1.61,3768.2,2.8,1.04,2.2794,0.664680374315355,-0.177177166
Te-OCN-Bi,0.575,6.72489439357293,2.63,0.395951025061975,3.92,2.02,3768.2,3.4,0.64,2.2794,0.37476659402887,-0.10456684
Te-OCN-Ce,1.025,6.34112675559176,2.45,0.739616569076971,22.08,1.12,3768.2,3.4,1.28,2.2794,1.01116269709676,-0.87822898
Te-OCN-Co,0.645,6.49038420394637,2.602,0.455779073674793,9.04,1.88,3768.2,3,1.28,2.2794,0.473761543394987,0.001087072
Te-OCN-Cr,0.755,6.53864162045049,2.558,0.547107278760105,11.2,1.66,3768.2,3,1.28,2.2794,0.629325035256027,-0.292050472
Te-OCN-Fe,0.67,7.38296544334764,2.592,0.476922164006862,9.76,1.83,3768.2,3,1.28,2.2794,0.509116882454314,-0.006126362
Te-OCN-Ga,0.68,8.05298167648091,2.588,0.485327755826721,5.2,1.81,3768.2,3,1.04,2.2794,0.523259018078045,0.032584926
Te-OCN-Gd,0.985,7.10999056417769,2.466,0.714753054942695,18.24,1.2,3768.2,3.4,1.28,2.2794,0.954594154601839,-0.064264288
Te-OCN-In,0.695,7.36413126601271,2.582,0.497871893693153,5.04,1.78,3768.2,3.2,1.04,2.2794,0.544472221513641,-0.092622334
Te-OCN-Ir,0.485,6.23757960040478,2.666,0.361670071504925,8.56,2.1,3768.2,3.4,1.28,2.2794,0.247487373415291,0.079042964
Te-OCN-La,1.035,7.79197069870234,2.446,0.745613369000596,22.72,1.1,3768.2,3.4,1.28,2.2794,1.02530483272049,-0.972160704
Te-OCN-Lu,0.95,7.19010987766055,2.48,0.691867378684938,13.76,1.27,3768.2,3.4,1.28,2.2794,0.905096679918781,-0.816061456
Te-OCN-Nd,1.015,6.56250548752376,2.454,0.733531702186476,20.8,1.14,3768.2,3.4,1.28,2.2794,0.997020561473032,-0.889722922
Te-OCN-Rh,0.445,7.00723062382062,2.682,0.361670071504925,8.8,2.1,3768.2,3.2,1.28,2.2794,0.190918830920368,-0.120243034
Te-OCN-Ru,0.485,6.90136498935308,2.666,0.361670071504925,9.52,2.1,3768.2,3.2,1.28,2.2794,0.247487373415291,0.117341292
Te-OCN-Sc,0.905,9.10860997290237,2.498,0.660947392745558,23.36,1.36,3768.2,3,1.28,2.2794,0.841457069611991,-0.75561596
Te-OCN-Sm,1,6.51460227982778,2.46,0.724240177376075,19.52,1.17,3768.2,3.4,1.28,2.2794,0.975807358037435,-0.888535766
Te-OCN-Y,0.975,8.5854450036377,2.47,0.708320592678053,23.04,1.22,3768.2,3.2,1.28,2.2794,0.940452018978108,-0.868711678
Te-SCN-Al,0.493333333333333,10.3659636807632,2.376,0.400239577896362,5.6,1.61,3759.95,3,1.04,2.7198,0.664680374315355,0.0432749326
Te-SCN-Bi,0.288333333333333,6.22108671645024,2.458,0.229025515499885,4.08,2.02,3759.95,3.6,0.64,2.7198,0.37476659402887,0.5485390786
Te-SCN-Ce,0.738333333333333,5.86606972806008,2.278,0.602118079548795,22.16,1.12,3759.95,3.6,1.28,2.7198,1.01116269709676,-0.2856433034
Te-SCN-Co,0.358333333333333,6.0041452835926,2.43,0.285662686264043,9.2,1.88,3759.95,3.2,1.28,2.7198,0.473761543394987,0.1733388906
Te-SCN-Cr,0.468333333333333,6.04878740809509,2.386,0.378798640994549,11.36,1.66,3759.95,3.2,1.28,2.7198,0.629325035256027,-0.0230906434
Te-SCN-Fe,0.383333333333333,6.82985717835467,2.42,0.306514536143557,9.92,1.83,3759.95,3.2,1.28,2.7198,0.509116882454314,0.2647626326
Te-SCN-Ga,0.393333333333333,7.44967792851173,2.416,0.314923658853183,5.44,1.81,3759.95,3.2,1.04,2.7198,0.523259018078045,0.2258061906
Te-SCN-Gd,0.698333333333333,6.57733270802964,2.294,0.571043601320927,18.32,1.2,3759.95,3.6,1.28,2.7198,0.954594154601839,-0.4874474694
Te-SCN-In,0.408333333333333,6.81243399762107,2.41,0.327598737602997,5.28,1.78,3759.95,3.4,1.04,2.7198,0.544472221513641,0.1591271486
Te-SCN-Ir,0.198333333333333,5.77027999606435,2.494,0.198203144033059,8.72,2.1,3759.95,3.6,1.28,2.7198,0.247487373415291,0.1395626226
Te-SCN-La,0.748333333333333,7.20822106217673,2.274,0.609723571536479,22.8,1.1,3759.95,3.6,1.28,2.7198,1.02530483272049,-0.5907776014
Te-SCN-Lu,0.663333333333333,6.65144973763172,2.308,0.543069966787304,13.84,1.27,3759.95,3.6,1.28,2.7198,0.905096679918781,-0.4735502814
Te-SCN-Nd,0.728333333333333,6.07086347022545,2.282,0.59444549493668,20.88,1.14,3759.95,3.6,1.28,2.7198,0.997020561473032,-0.2050940614
Te-SCN-Rh,0.158333333333333,6.48227121523511,2.51,0.198203144033059,8.96,2.1,3759.95,3.4,1.28,2.7198,0.190918830920368,0.0423873126
Te-SCN-Ru,0.198333333333333,6.38433669704491,2.494,0.198203144033059,9.68,2.1,3759.95,3.4,1.28,2.7198,0.247487373415291,0.2569328766
Te-SCN-Sc,0.618333333333333,8.4262219138943,2.326,0.506187801966654,23.44,1.36,3759.95,3.2,1.28,2.7198,0.841457069611991,-0.4225274894
Te-SCN-Sm,0.713333333333333,6.02654901833493,2.288,0.582814787035019,19.6,1.17,3759.95,3.6,1.28,2.7198,0.975807358037435,-0.5208317134
Te-SCN-Y,0.688333333333333,7.94225079846458,2.298,0.563121432466778,23.12,1.22,3759.95,3.4,1.28,2.7198,0.940452018978108,-0.5305838414
Te-SH-Al,0.435,10.6318727391352,2.1225,0.209607008802607,6.375,1.61,919.46,3,1.75,2.62975,0.417193000900063,-0.4242281042
Te-SH-Bi,0.23,6.38067084791809,2.225,0.075405485239789,2,2.02,708.65,3.75,1.375,2.62975,0.127279220613579,-0.1494961467
Te-SH-Ce,0.68,6.01654691723138,2,0.413099512040662,28.125,1.12,1056.99,3.75,2,2.62975,0.763675323681471,-1.25356960675
Te-SH-Co,0.3,6.15816440500354,2.19,0.115294095056517,12,1.88,1753.99,3.25,2,2.62975,0.226274169979695,-0.2659789043
Te-SH-Cr,0.41,6.20395169513228,2.135,0.190711651828668,15.375,1.66,2165.99,3.25,2,2.62975,0.381837661840736,-0.5121689718
Te-SH-Fe,0.325,7.00505756946561,2.1775,0.131184943737157,13.125,1.83,1796.99,3.25,2,2.62975,0.261629509039023,-0.1462968643
Te-SH-Ga,0.335,7.64077804270772,2.1725,0.137762910230166,6,1.81,708.65,3.25,1.75,2.62975,0.275771644662754,-0.1762496693
Te-SH-Gd,0.64,6.74605530834486,2.02,0.378798640994549,23.625,1.2,1571.99,3.75,2,2.62975,0.707106781186548,-1.0989273593
Te-SH-In,0.35,6.98718744701725,2.165,0.147856211033789,5.625,1.78,708.65,3.5,1.75,2.62975,0.29698484809835,-0.2927226968
Te-SH-Ir,0.14,5.91829997448119,2.27,0.055972517082164,11.25,2.1,2724.99,3.75,2,2.62975,0,-0.2890478443
Te-SH-La,0.69,7.3931272932045,1.995,0.421663847129056,28.875,1.1,1178.99,3.75,2,2.62975,0.777817459305202,-1.2177501668
Te-SH-Lu,0.605,6.82207359770028,2.0375,0.348856349613711,18.375,1.27,1921.99,3.75,2,2.62975,0.657609306503489,-1.0911028268
Te-SH-Nd,0.67,6.22659405530057,2.005,0.40452745776073,26.625,1.14,1279.99,3.75,2,2.62975,0.749533188057741,-1.1507937717
Te-SH-Rh,0.1,6.64855528568328,2.29,0.055972517082164,11.625,2.1,2222.99,3.5,2,2.62975,0.056568542494924,-0.4072820668
Te-SH-Ru,0.14,6.54810853840217,2.27,0.055972517082164,12.75,2.1,2592.99,3.5,2,2.62975,0,-0.1371493343
Te-SH-Sc,0.56,8.64237246233923,2.06,0.310714689453374,29.625,1.36,1799.99,3.25,2,2.62975,0.5939696961967,-1.0458664418
Te-SH-Sm,0.655,6.18114284328457,2.0125,0.39166222482331,25.125,1.17,1330.99,3.75,2,2.62975,0.728319984622144,-1.1412154143
Te-SH-Y,0.63,8.145986456452,2.025,0.370229618598997,29.25,1.22,1784.99,3.5,2,2.62975,0.692964645562817,-1.1750934793
Cl-Br-Ba,2.17,6.3219691561976,2.33666666666667,0.724240177376075,38,0.89,828.4,4.33333333333333,2.22222222222222,1.31666666666667,0,-2.6187293467
Cl-Br-Be,1.49,11.0202711606383,2.56333333333333,0.468485606147228,12.2222222222222,1.57,1388.4,3,2.22222222222222,1.31666666666667,0,-1.16535718
Cl-Br-Ca,2.06,7.29913043999068,2.37333333333333,0.688513724152593,38.8888888888889,1,943.4,3.66666666666667,2.22222222222222,1.31666666666667,0,-2.5510248767
Cl-Br-Cd,1.37,5.88023646603292,2.60333333333333,0.417382851233086,10.8888888888889,1.69,422.62,4,2.22222222222222,1.31666666666667,0,-1.21473017
Cl-Br-Co,1.18,5.44988075939211,2.66666666666667,0.336084236664527,16.2222222222222,1.88,1596.4,3.66666666666667,2.22222222222222,1.31666666666667,0,-0.69844997
Cl-Br-Cu,1.16,5.47194529458664,2.67333333333333,0.327598737602997,13.5555555555556,1.9,1186.17,3.66666666666667,2.22222222222222,1.31666666666667,0,-0.5344782167
Cl-Br-Fe,1.23,5.24272006865319,2.65,0.357394966944066,17.5555555555556,1.83,1639.4,3.66666666666667,2.22222222222222,1.31666666666667,0,-0.70187287
Cl-Br-Mg,1.75,8.62469018000736,2.47666666666667,0.574982527866331,11.7777777777778,1.31,751.4,3.33333333333333,2.22222222222222,1.31666666666667,0,-1.9767590967
Cl-Br-Mn,1.51,5.68342367817519,2.55666666666667,0.476922164006862,18.8888888888889,1.55,1347.4,3.66666666666667,2.22222222222222,1.31666666666667,0,-0.8929350633
Cl-Br-Ni,1.15,5.51554829065634,2.67666666666667,0.323366153838271,14.8888888888889,1.91,1556.4,3.66666666666667,2.22222222222222,1.31666666666667,0,-0.98671593
Cl-Br-Pb,0.73,5.51554829065634,2.81666666666667,0.158210250834464,6,2.33,429.01,4.33333333333333,1.33333333333333,1.31666666666667,0,-1.1497811767
Cl-Br-Pd,0.86,5.1201814714325,2.77333333333333,0.205784147383453,14.4444444444444,2.2,1656.45,4,2.22222222222222,1.31666666666667,0,-0.5188532
Cl-Br-Pt,0.78,5.40520759636494,2.8,0.176012566668297,14,2.28,1869.8,4.33333333333333,2.22222222222222,1.31666666666667,0,-0.1168902933
Cl-Br-Sr,2.11,6.85243488838802,2.35666666666667,0.705072288961961,38.4444444444444,0.95,878.4,4,2.22222222222222,1.31666666666667,0,-2.6105094767
Cl-Br-Zn,1.41,5.97388651250961,2.59,0.434488699259705,11.3333333333333,1.65,521.08,3.66666666666667,2.22222222222222,1.31666666666667,0,-1.15556384
CN-Br-Ba,1.28,6.58029014219976,2.36,0.685139312535294,28.375,0.89,3759.95,3.5,1.5,3.0975,1.17379725676967,-1.0297417225
CN-Br-Be,0.94,11.4705687248769,2.53,0.417382851233086,8.25,1.57,3759.95,2.5,1.5,3.0975,0.692964645562816,0.1518727925
CN-Br-Ca,1.225,7.59737905931024,2.3875,0.646686671641399,29.125,1,3759.95,3,1.5,3.0975,1.09601551083915,-0.935341985
CN-Br-Cd,0.88,6.12050788215369,2.56,0.365948438141932,7.5,1.69,3759.95,3.25,1.5,3.0975,0.608111831820431,0.04955339
CN-Br-Co,0.785,5.67256747876344,2.6075,0.285662686264043,10.5,1.88,3759.95,3,1.5,3.0975,0.473761543394987,0.285110035
CN-Br-Cu,0.775,5.69553358945546,2.6125,0.277400390009806,9,1.9,3759.95,3,1.5,3.0975,0.459619407771256,0.5150229825
CN-Br-Fe,0.81,5.45694202766736,2.595,0.306514536143557,11.25,1.83,3759.95,3,1.5,3.0975,0.509116882454314,0.2591467875
CN-Br-Mg,1.07,8.97710228709246,2.465,0.526794252062466,8,1.31,3759.95,2.75,1.5,3.0975,0.876812408671319,-0.4795798825
CN-Br-Mn,0.95,5.91565315796868,2.525,0.425942090430698,12.25,1.55,3759.95,3,1.5,3.0975,0.707106781186547,-0.1426416525
CN-Br-Ni,0.77,5.74091824068023,2.615,0.273287979294598,9.75,1.91,3759.95,3,1.5,3.0975,0.45254833995939,0.2403740175
CN-Br-Pb,0.56,5.74091824068023,2.72,0.118407193312251,5.625,2.33,3759.95,3.5,1,3.0975,0.15556349186104,0.0554592475
CN-Br-Pd,0.625,5.32939640012506,2.6875,0.161717396775766,9.5,2.2,3759.95,3.25,1.5,3.0975,0.247487373415291,0.52172694
CN-Br-Pt,0.585,5.62606893265769,2.7075,0.134458537778234,9.25,2.28,3759.95,3.5,1.5,3.0975,0.190918830920368,0.6753477325
CN-Br-Sr,1.25,7.13243115112661,2.375,0.664463655809218,28.75,0.95,3759.95,3.25,1.5,3.0975,1.13137084989848,-0.99996071
CN-Br-Zn,0.9,6.21798454842991,2.55,0.383085599679248,7.75,1.65,3759.95,3,1.5,3.0975,0.636396103067893,0.1176263025
CN-Cl-Ba,1.38,6.83168603295496,2.41,0.724240177376075,28.25,0.89,3759.95,3.25,1.5,3.3565,1.17379725676967,-1.1267031
CN-Cl-Be,1.04,11.9087946662478,2.58,0.468485606147228,8,1.57,3759.95,2.25,1.5,3.3565,0.692964645562816,-0.02408922
CN-Cl-Ca,1.325,7.88763219933085,2.4375,0.688513724152593,29,1,3759.95,2.75,1.5,3.3565,1.09601551083915,-1.0492876975
CN-Cl-Cd,0.98,6.35433807773135,2.61,0.417382851233086,7.25,1.69,3759.95,3,1.5,3.3565,0.608111831820431,-0.0343093625
CN-Cl-Co,0.885,5.8892843899293,2.6575,0.336084236664527,10.25,1.88,3759.95,2.75,1.5,3.3565,0.473761543394987,0.265326485
CN-Cl-Cu,0.875,5.91312790659125,2.6625,0.327598737602997,8.75,1.9,3759.95,2.75,1.5,3.3565,0.459619407771256,0.4162284925
CN-Cl-Fe,0.91,5.66542110263203,2.645,0.357394966944066,11,1.83,3759.95,2.75,1.5,3.3565,0.509116882454314,0.13387336
CN-Cl-Mg,1.17,9.32006689459375,2.515,0.574982527866331,7.75,1.31,3759.95,2.5,1.5,3.3565,0.876812408671319,-0.621730265
CN-Cl-Mn,1.05,6.14165700626544,2.575,0.476922164006862,12.125,1.55,3759.95,2.75,1.5,3.3565,0.707106781186547,-0.32240722
CN-Cl-Ni,0.87,5.96024645017863,2.665,0.323366153838271,9.5,1.91,3759.95,2.75,1.5,3.3565,0.45254833995939,0.1172056575
CN-Cl-Pb,0.66,5.96024645017863,2.77,0.158210250834464,5.25,2.33,3759.95,3.25,1,3.3565,0.15556349186104,-0.002527525
CN-Cl-Pd,0.725,5.53300267374586,2.7375,0.205784147383453,9.25,2.2,3759.95,3,1.5,3.3565,0.247487373415291,0.4431090425
CN-Cl-Pt,0.685,5.84100939580006,2.7575,0.176012566668297,9,2.28,3759.95,3.25,1.5,3.3565,0.190918830920368,0.593410055
CN-Cl-Sr,1.35,7.40492124559655,2.425,0.705072288961961,28.625,0.95,3759.95,3,1.5,3.3565,1.13137084989848,-1.106304885
CN-Cl-Zn,1,6.45553877939457,2.6,0.434488699259705,7.5,1.65,3759.95,2.75,1.5,3.3565,0.636396103067893,-0.0020366675
CN-F-Ba,1.79,7.8017966494641,2.615,0.908097311920564,28.125,0.89,3769.5,3,1.5,3.22575,1.17379725676967,-1.52449007
CN-F-Be,1.45,13.5998630320693,2.785,0.76590423612167,7.75,1.57,3769.5,2,1.5,3.22575,0.692964645562816,-0.586190025
CN-F-Ca,1.735,9.00768890257786,2.6425,0.891401751542897,28.875,1,3769.5,2.5,1.5,3.22575,1.09601551083915,-1.527078755
CN-F-Cd,1.39,7.25666450203704,2.815,0.730456367481674,7,1.69,3769.5,2.75,1.5,3.22575,0.608111831820431,-0.4096386575
CN-F-Co,1.295,6.72557242816058,2.8625,0.667960054655339,10,1.88,3769.5,2.5,1.5,3.22575,0.473761543394987,-0.2375827075
CN-F-Cu,1.285,6.75280176327746,2.8675,0.660947392745558,8.5,1.9,3769.5,2.5,1.5,3.22575,0.459619407771256,0.0563447125
CN-F-Fe,1.32,6.46992018706682,2.85,0.685139312535294,10.875,1.83,3769.5,2.5,1.5,3.22575,0.509116882454314,-0.2530871275
CN-F-Mg,1.58,10.6435316728939,2.72,0.831736655486387,7.5,1.31,3769.5,2.25,1.5,3.22575,0.876812408671319,-1.1600568075
CN-F-Mn,1.46,7.01378236975476,2.78,0.77150135530994,12,1.55,3769.5,2.5,1.5,3.22575,0.707106781186547,-0.441069865
CN-F-Ni,1.28,6.80661121730013,2.87,0.657411410756611,9.25,1.91,3769.5,2.5,1.5,3.22575,0.45254833995939,-0.281264005
CN-F-Pb,1.07,6.80661121730013,2.975,0.493699544326619,4.875,2.33,3769.5,3,1,3.22575,0.15556349186104,-0.377946905
CN-F-Pd,1.135,6.31869812419275,2.9425,0.547107278760105,9,2.2,3769.5,2.75,1.5,3.22575,0.247487373415291,0.1431053875
CN-F-Pt,1.095,6.67044230572323,2.9625,0.514463104845921,8.75,2.28,3769.5,3,1.5,3.22575,0.190918830920368,0.291753775
CN-F-Sr,1.76,8.45643220205954,2.63,0.89926127549485,28.5,0.95,3769.5,2.75,1.5,3.22575,1.13137084989848,-1.546221565
CN-F-Zn,1.41,7.37223586924433,2.805,0.742626000251458,7.25,1.65,3769.5,2.5,1.5,3.22575,0.636396103067893,-0.422723835
CN-I-Ba,1.13,6.30806056514701,2.285,0.685139312535294,28.5,0.89,3759.95,3.75,1.5,2.99875,1.17379725676967,-0.8173182875
CN-I-Be,0.79,10.9960261127659,2.455,0.417382851233086,8.5,1.57,3759.95,2.75,1.5,2.99875,0.692964645562816,0.4821041625
CN-I-Ca,1.075,7.28307205409754,2.3125,0.646686671641399,29.25,1,3759.95,3.25,1.5,2.99875,1.09601551083915,-0.69454549
CN-I-Cd,0.73,5.86729970499121,2.485,0.365948438141932,7.75,1.69,3759.95,3.5,1.5,2.99875,0.608111831820431,0.2737346225
CN-I-Co,0.635,5.43789079852959,2.5325,0.285662686264043,10.75,1.88,3759.95,3.25,1.5,2.99875,0.473761543394987,0.6301062025
CN-I-Cu,0.625,5.45990679084308,2.5375,0.277400390009806,9.25,1.9,3759.95,3.25,1.5,2.99875,0.459619407771256,0.7275627
CN-I-Fe,0.66,5.23118586979427,2.52,0.306514536143557,11.5,1.83,3759.95,3.25,1.5,2.99875,0.509116882454314,0.523617385
CN-I-Mg,0.92,8.60571550839984,2.39,0.526794252062466,8.25,1.31,3759.95,3,1.5,2.99875,0.876812408671319,-0.19172258
CN-I-Mn,0.8,5.67091991332695,2.45,0.425942090430698,12.375,1.55,3759.95,3.25,1.5,2.99875,0.707106781186547,0.1216061325
CN-I-Ni,0.62,5.50341385853572,2.54,0.273287979294598,10,1.91,3759.95,3.25,1.5,2.99875,0.45254833995939,0.50583046
CN-I-Pb,0.41,5.50341385853572,2.645,0.118407193312251,6,2.33,3759.95,3.75,1,2.99875,0.15556349186104,0.2159164475
CN-I-Pd,0.475,5.10891686250584,2.6125,0.161717396775766,9.75,2.2,3759.95,3.5,1.5,2.99875,0.247487373415291,0.6810181075
CN-I-Pt,0.435,5.3933159182906,2.6325,0.134458537778234,9.5,2.28,3759.95,3.75,1.5,2.99875,0.190918830920368,0.832892605
CN-I-Sr,1.1,6.83735925100217,2.3,0.664463655809218,28.875,0.95,3759.95,3.5,1.5,2.99875,1.13137084989848,-0.7755590925
CN-I-Zn,0.75,5.96074371753036,2.475,0.383085599679248,8,1.65,3759.95,3.25,1.5,2.99875,0.636396103067893,0.37741956
F-Br-Ba,2.58,7.21969914058007,2.61,0.908097311920564,37.7777777777778,0.89,946.5,4,2.22222222222222,1.14233333333333,0,-3.13590333
F-Br-Be,1.9,12.5851677320225,2.83666666666667,0.76590423612167,12,1.57,1506.5,2.66666666666667,2.22222222222222,1.14233333333333,0,-1.6574272133
F-Br-Ca,2.47,8.33561892862475,2.64666666666667,0.891401751542897,38.6666666666667,1,1061.5,3.33333333333333,2.22222222222222,1.14233333333333,0,-3.0883226333
F-Br-Cd,1.78,6.71523968423779,2.87666666666667,0.730456367481674,10.6666666666667,1.69,540.72,3.66666666666667,2.22222222222222,1.14233333333333,0,-1.62145486
F-Br-Co,1.59,6.22377276173115,2.94,0.667960054655339,16,1.88,1714.5,3.33333333333333,2.22222222222222,1.14233333333333,0,-1.33216321
F-Br-Cu,1.57,6.24897049709578,2.94666666666667,0.660947392745558,13.3333333333333,1.9,1304.27,3.33333333333333,2.22222222222222,1.14233333333333,0,-0.94109474
F-Br-Fe,1.64,5.98719491328918,2.92333333333333,0.685139312535294,17.3333333333333,1.83,1757.5,3.33333333333333,2.22222222222222,1.14233333333333,0,-1.35810473
F-Br-Mg,2.16,9.84941032483934,2.75,0.831736655486387,11.5555555555556,1.31,869.5,3,2.22222222222222,1.14233333333333,0,-2.55033034
F-Br-Mn,1.92,6.49047915785044,2.83,0.77150135530994,18.6666666666667,1.55,1465.5,3.33333333333333,2.22222222222222,1.14233333333333,0,-1.3431891
F-Br-Ni,1.56,6.29876519008989,2.95,0.657411410756611,14.6666666666667,1.91,1674.5,3.33333333333333,2.22222222222222,1.14233333333333,0,-1.3812486533
F-Br-Pb,1.14,6.29876519008989,3.09,0.493699544326619,5.77777777777778,2.33,547.11,4,1.33333333333333,1.14233333333333,0,-1.6657519433
F-Br-Pd,1.27,5.84725563437403,3.04666666666667,0.547107278760105,14.2222222222222,2.2,1774.55,3.66666666666667,2.22222222222222,1.14233333333333,0,-0.8044809733
F-Br-Pt,1.19,6.17275593631717,3.07333333333333,0.514463104845921,13.7777777777778,2.28,1987.9,4,2.22222222222222,1.14233333333333,0,-0.2773696
F-Br-Sr,2.52,7.82549187638421,2.63,0.89926127549485,38.2222222222222,0.95,996.5,3.66666666666667,2.22222222222222,1.14233333333333,0,-3.1648559333