Compound,mean EN difference,geom-mean_eta_both,MagpieData mean Electronegativity,max ionic char,MagpieData avg_dev MendeleevNumber,MagpieData minimum Electronegativity,MagpieData range MeltingT,MagpieData mean Row,MagpieData avg_dev NpValence,MagpieData mean GSbandgap,std_dev EN difference,Formation_energy
OH-NO-Ni,1.05666666666667,6.02728315758185,2.806,0.443019472906049,8.32,1.91,1713.99,2.2,1.76,2.858,0.586884429281723,-0.596742302
OH-NO-Pb,0.916666666666666,6.02728315758185,2.89,0.319140970908075,3.44,2.2,586.6,2.6,1.28,2.858,0.452143045211726,-0.338704028
OH-NO-Pd,0.96,5.59523404025086,2.864,0.319140970908075,8,2.2,1814.04,2.4,1.76,2.858,0.484974226119286,-0.352575544
OH-NO-Pt,1.06666666666667,5.90670500773135,2.88,0.319140970908075,7.76,2.2,2027.39,2.6,1.76,2.858,0.056568542494924,-0.23050179
OH-NO-Sr,1.37666666666667,7.48820665049287,2.614,0.787757332306276,25.28,0.95,1035.99,2.4,1.76,2.858,1.05168119377183,-1.002476542
OH-NO-Zn,1.14333333333333,6.52814619049776,2.754,0.551131362113503,6.32,1.65,678.67,2.2,1.76,2.858,0.700023809118899,-0.527984994
OH-OCN-Ba,1.42666666666667,7.00723062382062,2.59333333333333,0.803211356141508,21.1111111111111,0.89,3808.99,2.5,1.5,3.131,0.875042856093346,-1.27913364
OH-OCN-Be,1.2,12.2147988469589,2.70666666666667,0.582814787035019,6.66666666666667,1.57,3808.99,1.83333333333333,1.5,3.131,0.496621921921831,-0.8528656433
OH-OCN-Ca,1.39,8.09031000985246,2.61166666666667,0.774266459580783,21.6666666666667,1,3808.99,2.16666666666667,1.5,3.131,0.812916559883813,-1.3246532017
OH-OCN-Cd,1.16,6.51761690417281,2.72666666666667,0.534956811865944,6.16666666666667,1.69,3808.99,2.33333333333333,1.5,3.131,0.432473505932252,-0.5539748717
OH-OCN-Co,1.09666666666667,6.04061336109903,2.75833333333333,0.455779073674793,8.66666666666667,1.88,3808.99,2.16666666666667,1.5,3.131,0.335111921602321,-0.4272467633
OH-OCN-Cu,1.09,6.0650695523419,2.76166666666667,0.447277935696606,7.33333333333333,1.9,3808.99,2.16666666666667,1.5,3.131,0.325320354932386,-0.309390595
OH-OCN-Fe,1.11333333333333,5.8109977618558,2.75,0.476922164006862,9.33333333333333,1.83,3808.99,2.16666666666667,1.5,3.131,0.360046293319808,-0.5388676833
OH-OCN-Mg,1.28666666666667,9.55955204100708,2.66333333333333,0.678328679969553,6.5,1.31,3808.99,2,1.5,3.131,0.639296488336984,-1.1558881833
OH-OCN-Mn,1.20666666666667,6.29947085502859,2.70333333333333,0.590584603914435,10,1.55,3808.99,2.16666666666667,1.5,3.131,0.507444578254611,-0.8043588783
OH-OCN-Ni,1.08666666666667,6.11339883737968,2.76333333333333,0.443019472906049,8,1.91,3808.99,2.16666666666667,1.5,3.131,0.320468407179241,-0.5516973167
OH-OCN-Pb,0.946666666666667,6.11339883737968,2.83333333333333,0.319140970908075,4.33333333333333,2.2,3808.99,2.5,1.16666666666667,3.131,0.176918060129541,-0.4986080367
OH-OCN-Pd,0.99,5.67517675580057,2.81166666666667,0.319140970908075,7.77777777777778,2.2,3808.99,2.33333333333333,1.5,3.131,0.202072594216369,-0.1731448567
OH-OCN-Pt,0.963333333333333,5.99109790977481,2.825,0.319140970908075,7.55555555555556,2.2,3808.99,2.5,1.5,3.131,0.183393929379719,0.1302849733
OH-OCN-Sr,1.40666666666667,7.59519548597882,2.60333333333333,0.787757332306276,21.3888888888889,0.95,3808.99,2.33333333333333,1.5,3.131,0.841130192063036,-1.3114371067
OH-OCN-Zn,1.17333333333333,6.62141802331469,2.72,0.551131362113503,6.33333333333333,1.65,3808.99,2.16666666666667,1.5,3.131,0.453688586293873,-0.6194832983
OH-SCN-Ba,1.14,6.48227121523511,2.45,0.803211356141508,21.1666666666667,0.89,3808.99,2.66666666666667,1.5,3.498,0.875042856093346,-0.8635207078
OH-SCN-Be,0.913333333333333,11.2997050070484,2.56333333333333,0.582814787035019,6.83333333333333,1.57,3808.99,2,1.5,3.498,0.496621921921831,-0.3111106578
OH-SCN-Ca,1.10333333333333,7.48420974199373,2.46833333333333,0.774266459580783,21.7222222222222,1,3808.99,2.33333333333333,1.5,3.498,0.812916559883813,-0.8846964262
OH-SCN-Cd,0.873333333333333,6.02933779662205,2.58333333333333,0.534956811865944,6.33333333333333,1.69,3808.99,2.5,1.5,3.498,0.432473505932252,-0.2253537612
OH-SCN-Co,0.81,5.58806984030261,2.615,0.455779073674793,8.77777777777778,1.88,3808.99,2.33333333333333,1.5,3.498,0.335111921602321,-0.1254094078
OH-SCN-Cu,0.803333333333333,5.61069385156164,2.61833333333333,0.447277935696606,7.44444444444444,1.9,3808.99,2.33333333333333,1.5,3.498,0.325320354932386,0.0052378172
OH-SCN-Fe,0.826666666666667,5.37565631070027,2.60666666666667,0.476922164006862,9.44444444444444,1.83,3808.99,2.33333333333333,1.5,3.498,0.360046293319808,-0.1355747278
OH-SCN-Mg,1,8.84338083797434,2.52,0.678328679969553,6.66666666666667,1.31,3808.99,2.16666666666667,1.5,3.498,0.639296488336984,-0.6430359195
OH-SCN-Mn,0.92,5.82753455494227,2.56,0.590584603914435,10.1111111111111,1.55,3808.99,2.33333333333333,1.5,3.498,0.507444578254611,-0.4193453312
OH-SCN-Ni,0.8,5.65540246043606,2.62,0.443019472906049,8.11111111111111,1.91,3808.99,2.33333333333333,1.5,3.498,0.320468407179241,-0.2020480878
OH-SCN-Pb,0.66,5.65540246043606,2.69,0.319140970908075,4.5,2.2,3808.99,2.66666666666667,1.16666666666667,3.498,0.176918060129541,-0.1920021828
OH-SCN-Pd,0.703333333333333,5.25001058198925,2.66833333333333,0.319140970908075,7.88888888888889,2.2,3808.99,2.5,1.5,3.498,0.202072594216369,0.0384040372
OH-SCN-Pt,0.676666666666667,5.54226392894338,2.68166666666667,0.319140970908075,7.66666666666667,2.2,3808.99,2.66666666666667,1.5,3.498,0.183393929379719,0.1404313355
OH-SCN-Sr,1.12,7.02618762189388,2.46,0.787757332306276,21.4444444444444,0.95,3808.99,2.5,1.5,3.498,0.841130192063036,-0.8858570345
OH-SCN-Zn,0.886666666666667,6.12536246640176,2.57666666666667,0.551131362113503,6.5,1.65,3808.99,2.33333333333333,1.5,3.498,0.453688586293873,-0.2338174062
OH-SH-Ba,1.24666666666667,6.64855528568328,2.262,0.803211356141508,25.84,0.89,985.99,2.6,1.92,3.5816,0.926309883354377,-1.4023641754
OH-SH-Be,1.02,11.5895665202506,2.398,0.582814787035019,7.28,1.57,1545.99,1.8,1.92,3.5816,0.445477272147525,-0.7607859474
OH-SH-Ca,1.21,7.67619567079313,2.284,0.774266459580783,26.48,1,1100.99,2.2,1.92,3.5816,0.848528137423857,-1.4409555934
OH-SH-Cd,0.98,6.18400315967767,2.422,0.534956811865944,6.32,1.69,580.21,2.4,1.92,3.5816,0.360624458405139,-0.6422217254
OH-SH-Co,0.916666666666666,5.7314157399327,2.46,0.455779073674793,10.16,1.88,1753.99,2.2,1.92,3.5816,0.226274169979695,-0.5578505414
OH-SH-Cu,0.91,5.7546201052925,2.464,0.447277935696606,8.24,1.9,1343.76,2.2,1.92,3.5816,0.212132034355964,-0.3490580394
OH-SH-Fe,0.933333333333333,5.51355335064095,2.45,0.476922164006862,11.12,1.83,1796.99,2.2,1.92,3.5816,0.261629509039023,-0.5839927034
OH-SH-Mg,1.10666666666667,9.07023240179128,2.346,0.678328679969553,6.96,1.31,908.99,2,1.92,3.5816,0.629325035256027,-1.1569038114
OH-SH-Mn,1.02666666666667,5.9770232348043,2.394,0.590584603914435,12.08,1.55,1504.99,2.2,1.92,3.5816,0.459619407771256,-0.5861044574
OH-SH-Ni,0.906666666666666,5.80047558525899,2.466,0.443019472906049,9.2,1.91,1713.99,2.2,1.92,3.5816,0.205060966544099,-0.6106599714
OH-SH-Pb,0.766666666666666,5.80047558525899,2.55,0.319140970908075,3.2,2.2,586.6,2.6,1.6,3.5816,0.091923881554251,-0.5920624154
OH-SH-Pd,0.81,5.38468454123634,2.524,0.319140970908075,8.88,2.2,1814.04,2.4,1.92,3.5816,0,-0.3115994714
OH-SH-Pt,0.783333333333333,5.68443480933431,2.54,0.319140970908075,8.56,2.2,2027.39,2.6,1.92,3.5816,0.056568542494924,-0.2094429894
OH-SH-Sr,1.22666666666667,7.20642430726353,2.274,0.787757332306276,26.16,0.95,1035.99,2.4,1.92,3.5816,0.883883476483184,-1.4364819214
OH-SH-Zn,0.993333333333333,6.28249106686664,2.414,0.551131362113503,6.64,1.65,678.67,2.2,1.92,3.5816,0.388908729652601,-0.6594149974
SCN-Br-Ba,1.14,5.88953425676337,2.404,0.685139312535294,24.48,0.89,3759.95,3.4,1.44,2.9184,1.17379725676967,-0.9108307034
SCN-Br-Be,0.8,10.266463330618,2.54,0.417382851233086,7.84,1.57,3759.95,2.6,1.44,2.9184,0.692964645562816,-0.0850037014
SCN-Br-Ca,1.085,6.79985582162586,2.426,0.646686671641399,25.12,1,3759.95,3,1.44,2.9184,1.09601551083915,-0.8411981774
SCN-Br-Cd,0.74,5.47801693569155,2.564,0.365948438141932,7.28,1.69,3759.95,3.2,1.44,2.9184,0.608111831820431,-0.1136458054
SCN-Br-Co,0.645,5.07709839049904,2.602,0.285662686264043,10,1.88,3759.95,3,1.44,2.9184,0.473761543394987,0.0563452206
SCN-Br-Cu,0.635,5.09765366887466,2.606,0.277400390009806,8.56,1.9,3759.95,3,1.44,2.9184,0.459619407771256,0.2158609626
SCN-Br-Fe,0.67,4.88410789108075,2.592,0.306514536143557,10.72,1.83,3759.95,3,1.44,2.9184,0.509116882454314,0.0557803946
SCN-Br-Mg,0.93,8.03474471547016,2.488,0.526794252062466,7.6,1.31,3759.95,2.8,1.44,2.9184,0.876812408671319,-0.5125490934
SCN-Br-Mn,0.81,5.29466652261324,2.536,0.425942090430698,11.44,1.55,3759.95,3,1.44,2.9184,0.707106781186547,0.0306392806
SCN-Br-Ni,0.63,5.13827413580596,2.608,0.273287979294598,9.28,1.91,3759.95,3,1.44,2.9184,0.45254833995939,-0.0284645034
SCN-Br-Pb,0.42,5.13827413580596,2.692,0.118407193312251,5.52,2.33,3759.95,3.4,1.04,2.9184,0.15556349186104,-0.0644241974
SCN-Br-Pd,0.485,4.76995117055966,2.666,0.161717396775766,9.04,2.2,3759.95,3.2,1.44,2.9184,0.247487373415291,0.2283687546
SCN-Br-Pt,0.445,5.03548095809689,2.682,0.134458537778234,8.8,2.28,3759.95,3.4,1.44,2.9184,0.190918830920368,0.3425084386
SCN-Br-Sr,1.11,6.38371510842283,2.416,0.664463655809218,24.8,0.95,3759.95,3.2,1.44,2.9184,1.13137084989848,-0.8849170474
SCN-Br-Zn,0.76,5.56526113812985,2.556,0.383085599679248,7.44,1.65,3759.95,3,1.44,2.9184,0.636396103067893,-0.0854769494
SCN-Cl-Ba,1.20666666666667,6.11454024869025,2.444,0.724240177376075,24.4,0.89,3759.95,3.2,1.44,3.1256,1.17379725676967,-0.9768769354
SCN-Cl-Be,0.866666666666667,10.658687174572,2.58,0.468485606147228,7.68,1.57,3759.95,2.4,1.44,3.1256,0.692964645562816,-0.1735914414
SCN-Cl-Ca,1.15166666666667,7.05964008255408,2.466,0.688513724152593,25.04,1,3759.95,2.8,1.44,3.1256,1.09601551083915,-0.9201231814
SCN-Cl-Cd,0.806666666666667,5.68730116440488,2.604,0.417382851233086,7.04,1.69,3759.95,3,1.44,3.1256,0.608111831820431,-0.1520814014
SCN-Cl-Co,0.711666666666667,5.27106577563696,2.642,0.336084236664527,9.84,1.88,3759.95,2.8,1.44,3.1256,0.473761543394987,-0.0087457754
SCN-Cl-Cu,0.701666666666667,5.29240635563383,2.646,0.327598737602997,8.4,1.9,3759.95,2.8,1.44,3.1256,0.459619407771256,0.1457758986
SCN-Cl-Fe,0.736666666666667,5.0707021942633,2.632,0.357394966944066,10.56,1.83,3759.95,2.8,1.44,3.1256,0.509116882454314,-0.0279071534
SCN-Cl-Mg,0.996666666666667,8.34170713826403,2.528,0.574982527866331,7.44,1.31,3759.95,2.6,1.44,3.1256,0.876812408671319,-0.5943551514
SCN-Cl-Mn,0.876666666666667,5.49694596287195,2.576,0.476922164006862,11.28,1.55,3759.95,2.8,1.44,3.1256,0.707106781186547,-0.0502151874
SCN-Cl-Ni,0.696666666666667,5.33457870223098,2.648,0.323366153838271,9.12,1.91,3759.95,2.8,1.44,3.1256,0.45254833995939,-0.0921425054
SCN-Cl-Pb,0.486666666666667,5.33457870223098,2.732,0.158210250834464,5.28,2.33,3759.95,3.2,1.04,3.1256,0.15556349186104,-0.1082055414
SCN-Cl-Pd,0.551666666666667,4.95218418726077,2.706,0.205784147383453,8.88,2.2,3759.95,3,1.44,3.1256,0.247487373415291,0.1986871386
SCN-Cl-Pt,0.511666666666667,5.22785837512344,2.722,0.176012566668297,8.64,2.28,3759.95,3.2,1.44,3.1256,0.190918830920368,0.3371962566
SCN-Cl-Sr,1.17666666666667,6.62760097231771,2.456,0.705072288961961,24.72,0.95,3759.95,3,1.44,3.1256,1.13137084989848,-0.9593574614
SCN-Cl-Zn,0.826666666666667,5.77787847731571,2.596,0.434488699259705,7.2,1.65,3759.95,2.8,1.44,3.1256,0.636396103067893,-0.1409988114
SCN-CN-Ba,0.89,6.36438551477212,2.44166666666667,0.685139312535294,20.0555555555556,0.89,3759.95,2.83333333333333,1,4.01133333333333,1.17379725676967,-0.1770613262
SCN-CN-Be,0.663333333333333,11.0942101125042,2.555,0.417382851233086,5.16666666666667,1.57,3759.95,2.16666666666667,1,4.01133333333333,0.692964645562816,0.5398087355
SCN-CN-Ca,0.853333333333334,7.34810292409736,2.46,0.646686671641399,20.6111111111111,1,3759.95,2.5,1,4.01133333333333,1.09601551083915,-0.1036442495
SCN-CN-Cd,0.623333333333334,5.91968908155251,2.575,0.365948438141932,4.66666666666667,1.69,3759.95,2.66666666666667,1,4.01133333333333,0.608111831820431,0.5203915772
SCN-CN-Co,0.56,5.48644596411983,2.60666666666667,0.285662686264043,6.66666666666667,1.88,3759.95,2.5,1,4.01133333333333,0.473761543394987,0.6230269988
SCN-CN-Cu,0.553333333333334,5.50865853819489,2.61,0.277400390009806,5.66666666666667,1.9,3759.95,2.5,1,4.01133333333333,0.459619407771256,0.7542019922
SCN-CN-Fe,0.576666666666667,5.27789535800427,2.59833333333333,0.306514536143557,7.27777777777778,1.83,3759.95,2.5,1,4.01133333333333,0.509116882454314,0.6175220972
SCN-CN-Mg,0.75,8.68255631984935,2.51166666666667,0.526794252062466,5,1.31,3759.95,2.33333333333333,1,4.01133333333333,0.876812408671319,0.1854840638
SCN-CN-Mn,0.67,5.72155580611006,2.55166666666667,0.425942090430698,8.11111111111111,1.55,3759.95,2.5,1,4.01133333333333,0.707106781186547,0.3610905222
SCN-CN-Ni,0.55,5.55255408240434,2.61166666666667,0.273287979294598,6.16666666666667,1.91,3759.95,2.5,1,4.01133333333333,0.45254833995939,0.5815922738
SCN-CN-Pb,0.41,5.55255408240434,2.68166666666667,0.118407193312251,2.83333333333333,2.33,3759.95,2.83333333333333,0.666666666666667,4.01133333333333,0.15556349186104,0.5327601072
SCN-CN-Pd,0.453333333333333,5.15453460538381,2.66,0.161717396775766,6,2.2,3759.95,2.66666666666667,1,4.01133333333333,0.247487373415291,0.7472263355
SCN-CN-Pt,0.426666666666667,5.44147307281896,2.67333333333333,0.134458537778234,5.83333333333333,2.28,3759.95,2.83333333333333,1,4.01133333333333,0.190918830920368,0.8218303772
SCN-CN-Sr,0.87,6.89841033182236,2.45166666666667,0.664463655809218,20.3333333333333,0.95,3759.95,2.66666666666667,1,4.01133333333333,1.13137084989848,-0.1499177612
SCN-CN-Zn,0.636666666666667,6.01396745978056,2.56833333333333,0.383085599679248,4.83333333333333,1.65,3759.95,2.5,1,4.01133333333333,0.636396103067893,0.5451917655
SCN-F-Ba,1.48,6.98281498814883,2.608,0.908097311920564,24.32,0.89,3769.5,3,1.44,3.021,1.17379725676967,-1.2583293754
SCN-F-Be,1.14,12.172238227156,2.744,0.76590423612167,7.52,1.57,3769.5,2.2,1.44,3.021,0.692964645562816,-0.4255092874
SCN-F-Ca,1.425,8.06212054781294,2.63,0.891401751542897,24.96,1,3769.5,2.6,1.44,3.021,1.09601551083915,-1.2504965354
SCN-F-Cd,1.08,6.49490725348148,2.768,0.730456367481674,6.8,1.69,3769.5,2.8,1.44,3.021,0.608111831820431,-0.3747831714
SCN-F-Co,0.985,6.01956575713443,2.806,0.667960054655339,9.68,1.88,3769.5,2.6,1.44,3.021,0.473761543394987,-0.2424014554
SCN-F-Cu,0.975,6.0439367344765,2.81,0.660947392745558,8.24,1.9,3769.5,2.6,1.44,3.021,0.459619407771256,-0.0650933734
SCN-F-Fe,1.01,5.79075021873073,2.796,0.685139312535294,10.4,1.83,3769.5,2.6,1.44,3.021,0.509116882454314,-0.2339869094
SCN-F-Mg,1.27,9.52624322724757,2.692,0.831736655486387,7.28,1.31,3769.5,2.4,1.44,3.021,0.876812408671319,-0.9026478974
SCN-F-Mn,1.15,6.27752130126357,2.74,0.77150135530994,11.12,1.55,3769.5,2.6,1.44,3.021,0.707106781186547,-0.3046117654
SCN-F-Ni,0.97,6.09209762342756,2.812,0.657411410756611,8.96,1.91,3769.5,2.6,1.44,3.021,0.45254833995939,-0.3155295574
SCN-F-Pb,0.76,6.09209762342756,2.896,0.493699544326619,5.04,2.33,3769.5,3,1.04,3.021,0.15556349186104,-0.4139194234
SCN-F-Pd,0.825,5.65540246043606,2.87,0.547107278760105,8.72,2.2,3769.5,2.8,1.44,3.021,0.247487373415291,-0.0295825454
SCN-F-Pt,0.785,5.97022283491402,2.886,0.514463104845921,8.48,2.28,3769.5,3,1.44,3.021,0.190918830920368,0.1003977086
SCN-F-Sr,1.45,7.56873117564041,2.62,0.89926127549485,24.64,0.95,3769.5,2.8,1.44,3.021,1.13137084989848,-1.2690997354
SCN-F-Zn,1.1,6.5983466933176,2.76,0.742626000251458,7.04,1.65,3769.5,2.6,1.44,3.021,0.636396103067893,-0.3647309334
SCN-I-Ba,1.04,5.64588156286858,2.344,0.685139312535294,24.56,0.89,3759.95,3.6,1.44,2.8394,1.17379725676967,-0.7485615674
SCN-I-Be,0.7,9.84173510284607,2.48,0.417382851233086,8,1.57,3759.95,2.8,1.44,2.8394,0.692964645562816,0.1363629606
SCN-I-Ca,0.985,6.51854271318563,2.366,0.646686671641399,25.2,1,3759.95,3.2,1.44,2.8394,1.09601551083915,-0.6705926554
SCN-I-Cd,0.64,5.25138889934898,2.504,0.365948438141932,7.52,1.69,3759.95,3.4,1.44,2.8394,0.608111831820431,0.0243388806
SCN-I-Co,0.545,4.8670565355606,2.542,0.285662686264043,10.16,1.88,3759.95,3.2,1.44,2.8394,0.473761543394987,0.2134389866
SCN-I-Cu,0.535,4.88676143278016,2.546,0.277400390009806,8.72,1.9,3759.95,3.2,1.44,2.8394,0.459619407771256,0.3257494946
SCN-I-Fe,0.57,4.6820501403226,2.532,0.306514536143557,10.88,1.83,3759.95,3.2,1.44,2.8394,0.509116882454314,0.2473025246
SCN-I-Mg,0.83,7.70234369540085,2.428,0.526794252062466,7.84,1.31,3759.95,3,1.44,2.8394,0.876812408671319,-0.3229362574
SCN-I-Mn,0.71,5.07562377572237,2.476,0.425942090430698,11.6,1.55,3759.95,3.2,1.44,2.8394,0.707106781186547,-0.1223779814
SCN-I-Ni,0.53,4.92570141263666,2.548,0.273287979294598,9.44,1.91,3759.95,3.2,1.44,2.8394,0.45254833995939,0.1362847166
SCN-I-Pb,0.32,4.92570141263666,2.632,0.118407193312251,5.76,2.33,3759.95,3.6,1.04,2.8394,0.15556349186104,0.0513654346
SCN-I-Pd,0.385,4.572616134921,2.606,0.161717396775766,9.2,2.2,3759.95,3.4,1.44,2.8394,0.247487373415291,0.3159499206
SCN-I-Pt,0.345,4.82716083514535,2.622,0.134458537778234,8.96,2.28,3759.95,3.6,1.44,2.8394,0.190918830920368,0.4389247186
SCN-I-Sr,1.01,6.11961792935677,2.356,0.664463655809218,24.88,0.95,3759.95,3.4,1.44,2.8394,1.13137084989848,-0.7212344454
SCN-I-Zn,0.66,5.33502376970361,2.496,0.383085599679248,7.68,1.65,3759.95,3.2,1.44,2.8394,0.636396103067893,0.0812163166
SCN-NC-Ba,0.89,6.40416395693267,2.44166666666667,0.685139312535294,20.0555555555556,0.89,3759.95,2.83333333333333,1,4.01133333333333,1.17379725676967,-0.2152794528
SCN-NC-Be,0.663333333333333,11.1635507258679,2.555,0.417382851233086,5.16666666666667,1.57,3759.95,2.16666666666667,1,4.01133333333333,0.692964645562816,0.4980393122
SCN-NC-Ca,0.853333333333334,7.39402975968542,2.46,0.646686671641399,20.6111111111111,1,3759.95,2.5,1,4.01133333333333,1.09601551083915,-0.1560058362
SCN-NC-Cd,0.623333333333334,5.95668809884843,2.575,0.365948438141932,4.66666666666667,1.69,3759.95,2.66666666666667,1,4.01133333333333,0.608111831820431,0.5056896822
SCN-NC-Co,0.56,5.52073714163323,2.60666666666667,0.285662686264043,6.66666666666667,1.88,3759.95,2.5,1,4.01133333333333,0.473761543394987,0.6250503722
SCN-NC-Cu,0.553333333333334,5.54308854790049,2.61,0.277400390009806,5.66666666666667,1.9,3759.95,2.5,1,4.01133333333333,0.459619407771256,0.7543704238
SCN-NC-Fe,0.576666666666667,5.31088306038976,2.59833333333333,0.306514536143557,7.27777777777778,1.83,3759.95,2.5,1,4.01133333333333,0.509116882454314,0.6056912222
SCN-NC-Mg,0.75,8.73682370569096,2.51166666666667,0.526794252062466,5,1.31,3759.95,2.33333333333333,1,4.01133333333333,0.876812408671319,0.1263174972
SCN-NC-Mn,0.67,5.75731645828511,2.55166666666667,0.425942090430698,8.11111111111111,1.55,3759.95,2.5,1,4.01133333333333,0.707106781186547,0.5811984772
SCN-NC-Ni,0.55,5.5872584463838,2.61166666666667,0.273287979294598,6.16666666666667,1.91,3759.95,2.5,1,4.01133333333333,0.45254833995939,0.5703006005
SCN-NCO-Ba,1.02833333333333,5.842415964179,2.58428571428571,0.803211356141508,17.9183673469388,0.89,3768.2,2.71428571428571,1.06122448979592,3.43828571428571,1.17379725676967,-0.6199828024
SCN-NCO-Be,0.801666666666667,10.1843281053303,2.68142857142857,0.582814787035019,5.42857142857143,1.57,3768.2,2.14285714285714,1.06122448979592,3.43828571428571,0.692964645562816,-0.1175431753
SCN-NCO-Ca,0.991666666666667,6.7454546445265,2.6,0.774266459580783,18.4081632653061,1,3768.2,2.42857142857143,1.06122448979592,3.43828571428571,1.09601551083915,-0.6134395424
SCN-NCO-Cd,0.761666666666667,5.43419092271579,2.69857142857143,0.534956811865944,4.93877551020408,1.69,3768.2,2.57142857142857,1.06122448979592,3.43828571428571,0.608111831820431,-0.0696192267
SCN-NCO-Co,0.698333333333333,5.03647986329233,2.72571428571429,0.455779073674793,6.89795918367347,1.88,3768.2,2.42857142857143,1.06122448979592,3.43828571428571,0.473761543394987,0.0025183533