Compound,mean EN difference,geom-mean_eta_both,MagpieData mean Electronegativity,max ionic char,MagpieData avg_dev MendeleevNumber,MagpieData minimum Electronegativity,MagpieData range MeltingT,MagpieData mean Row,MagpieData avg_dev NpValence,MagpieData mean GSbandgap,std_dev EN difference,Formation_energy
S-F-Bi,1.26,6.11527124142857,2.86,0.617260240551931,2.66666666666667,2.02,490.9,3.66666666666667,0.666666666666667,1.39066666666667,0,-1.187433959
S-F-Ce,2.16,5.7662927946919,2.56,0.870606871356709,33.5555555555556,1.12,1017.5,3.66666666666667,2,1.39066666666667,0,-2.8271453023
S-F-Co,1.4,5.9020198006601,2.81333333333333,0.667960054655339,14.4444444444444,1.88,1714.5,3,2,1.39066666666667,0,-1.232421889
S-F-Cr,1.62,5.94590260001161,2.74,0.739616569076971,18.4444444444444,1.66,2126.5,3,2,1.39066666666667,0,-1.6817771623
S-F-Fe,1.45,6.71368702760806,2.79666666666667,0.685139312535294,15.7777777777778,1.83,1757.5,3,2,1.39066666666667,0,-1.1670825757
S-F-Ga,1.47,7.32296514589138,2.79,0.691867378684938,7.33333333333333,1.81,334.86,3,1.55555555555556,1.39066666666667,0,-1.357385389
S-F-Gd,2.08,6.46545778703949,2.58666666666667,0.855156292905333,28.2222222222222,1.2,1532.5,3.66666666666667,2,1.39066666666667,0,-1.5443130623
S-F-In,1.5,6.6965602005872,2.78,0.701802720570113,6.88888888888889,1.78,376.25,3.33333333333333,1.55555555555556,1.39066666666667,0,-1.4307640257
S-F-Ir,1.08,5.67213236581559,2.92,0.547107278760105,13.5555555555556,2.2,2685.5,3.66666666666667,2,1.39066666666667,0,-0.923530629
S-F-La,2.18,7.08561525863785,2.55333333333333,0.874267670405572,34.4444444444444,1.1,1139.5,3.66666666666667,2,1.39066666666667,0,-3.0093680123
S-F-Lu,2.01,6.53831414803944,2.61,0.840550018252867,22,1.27,1882.5,3.66666666666667,2,1.39066666666667,0,-2.9216312423
S-F-Nd,2.14,5.96760316681336,2.56666666666667,0.866866114605718,31.7777777777778,1.14,1240.5,3.66666666666667,2,1.39066666666667,0,-2.8984095957
S-F-Rh,1,6.37201321062546,2.94666666666667,0.514463104845921,14,2.28,2183.5,3.33333333333333,2,1.39066666666667,0,-1.2102399023
S-F-Ru,1.08,6.27574447657164,2.92,0.547107278760105,15.3333333333333,2.2,2553.5,3.33333333333333,2,1.39066666666667,0,-0.908059139
S-F-Sc,1.92,8.28289893591699,2.64,0.820234130541532,35.3333333333333,1.36,1760.5,3,2,1.39066666666667,0,-2.8097817823
S-F-Sm,2.11,5.9240424666371,2.57666666666667,0.861103329501181,30,1.17,1291.5,3.66666666666667,2,1.39066666666667,0,-2.906201019
S-F-Y,2.06,7.80715976384542,2.59333333333333,0.851088036998852,34.8888888888889,1.22,1745.5,3.33333333333333,2,1.39066666666667,0,-2.964695929
S-I-Al,1.01,8.23873209196591,2.28333333333333,0.240902461029019,8.44444444444444,1.61,546.62,3.66666666666667,1.55555555555556,1.088,0,-0.8872868657
S-I-Bi,0.6,4.9444381975635,2.42,0.097331587919058,4,2.02,157.55,4.66666666666667,0.666666666666667,1.088,0,-0.3400876257
S-I-Ce,1.5,4.66227534753625,2.12,0.447277935696606,34.2222222222222,1.12,684.15,4.66666666666667,2,1.088,0,-1.8529102223
S-I-Co,0.74,4.77201598965261,2.37333333333333,0.141097613792152,15.1111111111111,1.88,1381.15,4,2,1.088,0,-0.148059629
S-I-Cr,0.96,4.8074969651913,2.3,0.221199216928595,19.1111111111111,1.66,1793.15,4,2,1.088,0,-0.7635164057
S-I-Fe,0.79,5.42828098300953,2.35666666666667,0.158210250834464,16.4444444444444,1.83,1424.15,4,2,1.088,0,-0.1198928123
S-I-Ga,0.81,5.92090639274948,2.35,0.165251669366129,8,1.81,85.45,4,1.55555555555556,1.088,0,-0.437858999
S-I-Gd,1.42,5.22757784321999,2.14666666666667,0.413099512040662,28.8888888888889,1.2,1199.15,4.66666666666667,2,1.088,0,-1.889904429
S-I-In,0.84,5.41443326728578,2.34,0.176012566668297,7.55555555555556,1.78,42.9,4.33333333333333,1.55555555555556,1.088,0,-0.6008935857
S-I-Ir,0.42,4.58614292382936,2.48,0.051525144774396,14.2222222222222,2.2,2352.15,4.66666666666667,2,1.088,0,-0.0878789357
S-I-La,1.52,5.72899963957502,2.11333333333333,0.455779073674793,35.1111111111111,1.1,806.15,4.66666666666667,2,1.088,0,-2.0604476223
S-I-Lu,1.35,5.28648508707587,2.17,0.383085599679248,22.6666666666667,1.27,1549.15,4.66666666666667,2,1.088,0,-1.8954050223
S-I-Nd,1.48,4.8250427300752,2.12666666666667,0.438756263556765,32.4444444444444,1.14,907.15,4.66666666666667,2,1.088,0,-1.9515157857
S-I-Rh,0.34,5.15202421448697,2.50666666666667,0.035456165723185,14.6666666666667,2.28,1850.15,4.33333333333333,2,1.088,0,-0.3080338057
S-I-Ru,0.42,5.07418714281921,2.48,0.051525144774396,16,2.2,2220.15,4.33333333333333,2,1.088,0,-0.1256887657
S-I-Sc,1.26,6.69705075514178,2.2,0.344593745673159,36,1.36,1427.15,4,2,1.088,0,-1.768574139
S-I-Sm,1.45,4.78982218443448,2.13666666666667,0.425942090430698,30.6666666666667,1.17,958.15,4.66666666666667,2,1.088,0,-1.9433661323
S-I-Y,1.4,6.31239685483197,2.15333333333333,0.40452745776073,35.5555555555556,1.22,1412.15,4.33333333333333,2,1.088,0,-1.9851068523
S-NC-Al,0.73,9.34525291164362,2.445,0.400239577896362,5,1.61,3759.95,2.5,1,3.28375,0.664680374315355,-0.1464496668
S-NC-Bi,0.525,5.60851171593278,2.5475,0.229025515499885,3.75,2.02,3759.95,3.25,0.5,3.28375,0.37476659402887,0.4218910083
S-NC-Ce,0.975,5.28845237107968,2.3225,0.602118079548795,25.25,1.12,3759.95,3.25,1.25,3.28375,1.01116269709676,-0.8042909243
S-NC-Co,0.595,5.41293196864586,2.5125,0.285662686264043,9.125,1.88,3759.95,2.75,1.25,3.28375,0.473761543394987,0.3376051382
S-NC-Cr,0.705,5.45317829371867,2.4575,0.378798640994549,12.5,1.66,3759.95,2.75,1.25,3.28375,0.629325035256027,0.0898390332
S-NC-Fe,0.62,6.1573380582624,2.5,0.306514536143557,10.25,1.83,3759.95,2.75,1.25,3.28375,0.509116882454314,0.3877429208
S-NC-Ga,0.63,6.71612659432989,2.495,0.314923658853183,4.75,1.81,3759.95,2.75,1,3.28375,0.523259018078045,0.2790553232
S-NC-Gd,0.935,5.92967904707508,2.3425,0.571043601320927,20.75,1.2,3759.95,3.25,1.25,3.28375,0.954594154601839,-0.8207002793
S-NC-In,0.645,6.14163049498173,2.4875,0.327598737602997,4.5,1.78,3759.95,3,1,3.28375,0.544472221513641,0.2108913207
S-NC-Ir,0.435,5.20209481674058,2.5925,0.161717396775766,8.375,2.2,3759.95,3.25,1.25,3.28375,0.247487373415291,0.4951309732
S-NC-La,0.985,6.49844538758005,2.3175,0.609723571536479,26,1.1,3759.95,3.25,1.25,3.28375,1.02530483272049,-0.9432148167
S-NC-Lu,0.9,5.99649795634606,2.36,0.543069966787304,15.5,1.27,3759.95,3.25,1.25,3.28375,0.905096679918781,-0.8598837042
S-NC-Nd,0.965,5.47308058068927,2.3275,0.59444549493668,23.75,1.14,3759.95,3.25,1.25,3.28375,0.997020561473032,-0.8572117518
S-NCO-Al,0.94,8.52552420073073,2.644,0.567089816109359,5.12,1.61,3768.2,2.4,1.04,2.627,0.664680374315355,-0.8697449754
S-NCO-Bi,0.735,5.11655519827521,2.726,0.395951025061975,3.6,2.02,3768.2,3,0.64,2.627,0.37476659402887,-0.3630977594
S-NCO-Ce,1.185,4.82457019626255,2.546,0.739616569076971,21.92,1.12,3768.2,3,1.28,2.627,1.01116269709676,-1.3989815914
S-NCO-Co,0.805,4.93813093470179,2.698,0.455779073674793,8.72,1.88,3768.2,2.6,1.28,2.627,0.473761543394987,-0.4772274614
S-NCO-Cr,0.915,4.97484701094315,2.654,0.547107278760105,11.04,1.66,3768.2,2.6,1.28,2.627,0.629325035256027,-0.7483275174
S-NCO-Fe,0.83,5.61724065941452,2.688,0.476922164006862,9.44,1.83,3768.2,2.6,1.28,2.627,0.509116882454314,-0.4449169654
S-NCO-Ga,0.84,6.12701446996583,2.684,0.485327755826721,4.88,1.81,3768.2,2.6,1.04,2.627,0.523259018078045,-0.5303970094
S-NCO-Gd,1.145,5.40955099839168,2.562,0.714753054942695,18.08,1.2,3768.2,3,1.28,2.627,0.954594154601839,-1.3451226814
S-NCO-In,0.855,5.60291090160593,2.678,0.497871893693153,4.64,1.78,3768.2,2.8,1.04,2.627,0.544472221513641,-0.5629593654
S-NCO-Ir,0.645,4.74578758584046,2.762,0.319140970908075,8.24,2.2,3768.2,3,1.28,2.627,0.247487373415291,-0.3340180454
S-NCO-La,1.195,5.92842739974564,2.542,0.745613369000596,22.56,1.1,3768.2,3,1.28,2.627,1.02530483272049,-1.4088298154
S-NCO-Lu,1.11,5.47050881659545,2.576,0.691867378684938,13.6,1.27,3768.2,3,1.28,2.627,0.905096679918781,-1.3941383014
S-NCO-Nd,1.175,4.99300354783113,2.55,0.733531702186476,20.64,1.14,3768.2,3,1.28,2.627,0.997020561473032,-1.3572965834
S-NCO-Rh,0.605,5.33136733092608,2.778,0.285662686264043,8.48,2.28,3768.2,2.8,1.28,2.627,0.190918830920368,-0.4884836654
S-NCO-Ru,0.645,5.25082073336594,2.762,0.319140970908075,9.2,2.2,3768.2,2.8,1.28,2.627,0.247487373415291,-0.3484776734
S-NCO-Sc,1.065,6.93017659139091,2.594,0.660947392745558,23.2,1.36,3768.2,2.6,1.28,2.627,0.841457069611991,-1.3375763534
S-NCO-Sm,1.16,4.95655696711081,2.556,0.724240177376075,19.36,1.17,3768.2,3,1.28,2.627,0.975807358037435,-1.3685778454
S-NCO-Y,1.135,6.53213280268771,2.566,0.708320592678053,22.88,1.22,3768.2,2.8,1.28,2.627,0.940452018978108,-1.4141662854
S-NC-Rh,0.395,5.84397802402675,2.6125,0.134458537778234,8.75,2.28,3759.95,3,1.25,3.28375,0.190918830920368,0.3015991983
S-NC-Ru,0.435,5.75568687527752,2.5925,0.161717396775766,9.875,2.2,3759.95,3,1.25,3.28375,0.247487373415291,0.4942957582
S-NCS-Al,0.653333333333333,8.45563971163342,2.472,0.400239577896362,5.28,1.61,3759.95,2.6,1.04,3.0674,0.664680374315355,-0.3574568648
S-NCS-Bi,0.448333333333333,5.07461433486895,2.554,0.229025515499885,3.76,2.02,3759.95,3.2,0.64,3.0674,0.37476659402887,0.0761144132
S-NC-Sc,0.855,7.596512712186,2.3825,0.506187801966654,26.75,1.36,3759.95,2.75,1.25,3.28375,0.841457069611991,-0.7734185218
S-NCS-Ce,0.898333333333333,4.78502276019393,2.374,0.602118079548795,22,1.12,3759.95,3.2,1.28,3.0674,1.01116269709676,-0.8779999488
S-NCS-Co,0.518333333333333,4.89765263104069,2.526,0.285662686264043,8.88,1.88,3759.95,2.8,1.28,3.0674,0.473761543394987,0.0646483112
S-NCS-Cr,0.628333333333333,4.93406774230097,2.482,0.378798640994549,11.12,1.66,3759.95,2.8,1.28,3.0674,0.629325035256027,-0.2506014368
S-NCS-Fe,0.543333333333333,5.57119563222591,2.516,0.306514536143557,9.6,1.83,3759.95,2.8,1.28,3.0674,0.509116882454314,0.1278494552
S-NCS-Ga,0.553333333333333,6.07679078097687,2.512,0.314923658853183,5.04,1.81,3759.95,2.8,1.04,3.0674,0.523259018078045,-0.0344097508
S-NCS-Gd,0.858333333333333,5.36520842204476,2.39,0.571043601320927,18.16,1.2,3759.95,3.2,1.28,3.0674,0.954594154601839,-0.1056202508
S-NCS-In,0.568333333333333,5.55698333673163,2.506,0.327598737602997,4.8,1.78,3759.95,3,1.04,3.0674,0.544472221513641,-0.0814117668
S-NCS-Ir,0.358333333333333,4.70688593791922,2.59,0.161717396775766,8.4,2.2,3759.95,3.2,1.28,3.0674,0.247487373415291,0.1288426272
S-NCS-La,0.908333333333333,5.8798315468424,2.37,0.609723571536479,22.64,1.1,3759.95,3.2,1.28,3.0674,1.02530483272049,-0.9810076248
S-NCS-Lu,0.823333333333333,5.42566656352704,2.404,0.543069966787304,13.68,1.27,3759.95,3.2,1.28,3.0674,0.905096679918781,-0.9371336348
S-NC-Sm,0.95,5.43312966311792,2.335,0.582814787035019,22.25,1.17,3759.95,3.25,1.25,3.28375,0.975807358037435,-0.8589542442
S-NCS-Nd,0.888333333333333,4.95207544842214,2.378,0.59444549493668,20.72,1.14,3759.95,3.2,1.28,3.0674,0.997020561473032,-0.9222776188
S-NCS-Rh,0.318333333333333,5.28766563313724,2.606,0.134458537778234,8.64,2.28,3759.95,3,1.28,3.0674,0.190918830920368,-0.0116331408
S-NCS-Ru,0.358333333333333,5.20777928328579,2.59,0.161717396775766,9.36,2.2,3759.95,3,1.28,3.0674,0.247487373415291,0.1661107352
S-NCS-Sc,0.778333333333333,6.87336931021494,2.422,0.506187801966654,23.28,1.36,3759.95,2.8,1.28,3.0674,0.841457069611991,-0.8682899028
S-NCS-Sm,0.873333333333333,4.91592762360388,2.384,0.582814787035019,19.44,1.17,3759.95,3.2,1.28,3.0674,0.975807358037435,-0.9274279748
S-NCS-Y,0.848333333333333,6.47858832226827,2.394,0.563121432466778,22.96,1.22,3759.95,3,1.28,3.0674,0.940452018978108,-0.9631109248
S-NC-Y,0.925,7.16019703378802,2.3475,0.563121432466778,26.375,1.22,3759.95,3,1.25,3.28375,0.940452018978108,-0.9049649592
S-NO-Al,0.685,8.85888539126166,2.6675,0.567089816109359,5,1.61,878.67,2.5,1,2.15975,1.01116269709676,-0.4213986318
S-NO-Bi,0.48,5.31662042501729,2.77,0.395951025061975,1.875,2.02,489.6,3.25,0.5,2.15975,0.721248916810279,0.1495671907
S-NO-Ce,0.93,5.01321835754374,2.545,0.739616569076971,26.5,1.12,1016.2,3.25,1.375,2.15975,1.35764501987817,-1.0923402092
S-NO-Co,0.55,5.13121949660497,2.735,0.455779073674793,10.375,1.88,1713.2,2.75,1.375,2.15975,0.820243866176395,-0.0630678193
S-NO-Cr,0.66,5.16937122824994,2.68,0.547107278760105,13.75,1.66,2125.2,2.75,1.375,2.15975,0.975807358037435,-0.2213762768
S-NO-Fe,0.575,5.8368834625586,2.7225,0.476922164006862,11.5,1.83,1756.2,2.75,1.375,2.15975,0.855599205235722,-0.1052009193
S-NO-Ga,0.585,6.36659021803924,2.7175,0.485327755826721,4.75,1.81,333.56,2.75,1,2.15975,0.869741340859453,-0.0779516443
S-NO-Gd,0.89,5.62107281436484,2.565,0.714753054942695,22,1.2,1531.2,3.25,1.375,2.15975,1.30107647738325,-0.0387160918
S-NO-In,0.6,5.82199338904265,2.71,0.497871893693153,4.5,1.78,374.95,3,1,2.15975,0.89095454429505,-0.0555080693
S-NO-Ir,0.82,4.9313552251285,2.815,0.319140970908075,9.625,2.2,2684.2,3.25,1.375,2.15975,0,0.1253609733
S-NO-La,0.94,6.16023808603587,2.54,0.745613369000596,27.25,1.1,1138.2,3.25,1.375,2.15975,1.3717871555019,-1.1304143118
S-NO-Lu,0.855,5.68441417759999,2.5825,0.691867378684938,16.75,1.27,1881.2,3.25,1.375,2.15975,1.25157900270019,-1.0363222043
S-NO-Nd,0.92,5.18823771382968,2.55,0.733531702186476,25,1.14,1239.2,3.25,1.375,2.15975,1.34350288425444,-1.0333530317
S-NO-Rh,0.35,5.53983204450262,2.835,0.285662686264043,10,2.28,2182.2,3,1.375,2.15975,0.537401153701776,-0.0343996817
S-NO-Ru,0.82,5.45613595032225,2.815,0.319140970908075,11.125,2.2,2552.2,3,1.375,2.15975,0,-8.23617E-05
S-NO-Sc,0.81,7.20115722140281,2.605,0.660947392745558,28,1.36,1759.2,2.75,1.375,2.15975,1.1879393923934,-0.9639174443
S-NO-Sm,0.905,5.1503660153977,2.5575,0.724240177376075,23.5,1.17,1290.2,3.25,1.375,2.15975,1.32228968081884,-1.0435502143
S-NO-Y,0.88,6.78754930454029,2.57,0.708320592678053,27.625,1.22,1744.2,3,1.375,2.15975,1.28693434175952,-1.0483375468
S-OCN-Al,0.94,8.98545799748804,2.644,0.567089816109359,5.12,1.61,3768.2,2.4,1.04,2.627,0.664680374315355,-0.5681155314
S-OCN-Bi,0.735,5.39258240824541,2.726,0.395951025061975,3.6,2.02,3768.2,3,0.64,2.627,0.37476659402887,-0.1111734914
S-OCN-Ce,1.185,5.08484543985391,2.546,0.739616569076971,21.92,1.12,3768.2,3,1.28,2.627,1.01116269709676,-1.1123871914
S-OCN-Co,0.805,5.20453253725515,2.698,0.455779073674793,8.72,1.88,3768.2,2.6,1.28,2.627,0.473761543394987,-0.1705850454
S-OCN-Cr,0.915,5.24322936728362,2.654,0.547107278760105,11.04,1.66,3768.2,2.6,1.28,2.627,0.629325035256027,-0.4395637954
S-OCN-Fe,0.83,5.9202787791776,2.688,0.476922164006862,9.44,1.83,3768.2,2.6,1.28,2.627,0.509116882454314,-0.1246065634
S-OCN-Ga,0.84,6.45755379653496,2.684,0.485327755826721,4.88,1.81,3768.2,2.6,1.04,2.627,0.523259018078045,-0.2390916674
S-OCN-Gd,1.145,5.70138470513658,2.562,0.714753054942695,18.08,1.2,3768.2,3,1.28,2.627,0.954594154601839,-0.3130783194
S-OCN-In,0.855,5.90517596158285,2.678,0.497871893693153,4.64,1.78,3768.2,2.8,1.04,2.627,0.544472221513641,-0.2805656874
S-OCN-Ir,0.645,5.00181267609499,2.762,0.319140970908075,8.24,2.2,3768.2,3,1.28,2.627,0.247487373415291,-0.0058281814
S-OCN-La,1.195,6.24825337860233,2.542,0.745613369000596,22.56,1.1,3768.2,3,1.28,2.627,1.02530483272049,-1.2061432994
S-OCN-Lu,1.11,5.76563106725957,2.576,0.691867378684938,13.6,1.27,3768.2,3,1.28,2.627,0.905096679918781,-1.1285097314
S-OCN-Nd,1.175,5.26236541050461,2.55,0.733531702186476,20.64,1.14,3768.2,3,1.28,2.627,0.997020561473032,-1.1310325154
S-OCN-Rh,0.605,5.61898319602568,2.778,0.285662686264043,8.48,2.28,3768.2,2.8,1.28,2.627,0.190918830920368,-0.1769672034
S-OCN-Ru,0.645,5.53409128179532,2.762,0.319140970908075,9.2,2.2,3768.2,2.8,1.28,2.627,0.247487373415291,-0.0150196894
S-OCN-Sc,1.065,7.30404479665668,2.594,0.660947392745558,23.2,1.36,3768.2,2.6,1.28,2.627,0.841457069611991,-1.0629725874
S-OCN-Sm,1.16,5.22395261470417,2.556,0.724240177376075,19.36,1.17,3768.2,3,1.28,2.627,0.975807358037435,-1.1309699114
S-OCN-Y,1.135,6.88452739686477,2.566,0.708320592678053,22.88,1.22,3768.2,2.8,1.28,2.627,0.940452018978108,-1.1607622494
S-SCN-Al,0.653333333333333,8.31229609238446,2.472,0.400239577896362,5.28,1.61,3759.95,2.6,1.04,3.0674,0.664680374315355,-0.1878386988
S-SCN-Bi,0.448333333333333,4.98858730322379,2.554,0.229025515499885,3.76,2.02,3759.95,3.2,0.64,3.0674,0.37476659402887,0.2717713052
S-SCN-Ce,0.898333333333333,4.7039050087255,2.374,0.602118079548795,22,1.12,3759.95,3.2,1.28,3.0674,1.01116269709676,-0.6817634168
S-SCN-Co,0.518333333333333,4.81462552985145,2.526,0.285662686264043,8.88,1.88,3759.95,2.8,1.28,3.0674,0.473761543394987,0.1187171592
S-SCN-Cr,0.628333333333333,4.85042331657787,2.482,0.378798640994549,11.12,1.66,3759.95,2.8,1.28,3.0674,0.629325035256027,-0.0960788168
S-SCN-Fe,0.543333333333333,5.47675034213526,2.516,0.306514536143557,9.6,1.83,3759.95,2.8,1.28,3.0674,0.509116882454314,0.1942708692
S-SCN-Ga,0.553333333333333,5.97377442577839,2.512,0.314923658853183,5.04,1.81,3759.95,2.8,1.04,3.0674,0.523259018078045,0.0875082672
S-SCN-Gd,0.858333333333333,5.27425511520237,2.39,0.571043601320927,18.16,1.2,3759.95,3.2,1.28,3.0674,0.954594154601839,0.0843335752
S-SCN-In,0.568333333333333,5.46277897955007,2.506,0.327598737602997,4.8,1.78,3759.95,3,1.04,3.0674,0.544472221513641,0.0388715152
S-SCN-Ir,0.358333333333333,4.62709279526615,2.59,0.161717396775766,8.4,2.2,3759.95,3.2,1.28,3.0674,0.247487373415291,0.1396345532
S-SCN-La,0.908333333333333,5.78015412878271,2.37,0.609723571536479,22.64,1.1,3759.95,3.2,1.28,3.0674,1.02530483272049,-0.7946846348
S-SCN-Lu,0.823333333333333,5.33368834442387,2.404,0.543069966787304,13.68,1.27,3759.95,3.2,1.28,3.0674,0.905096679918781,-0.7221462888
S-SCN-Nd,0.888333333333333,4.86812574836643,2.378,0.59444549493668,20.72,1.14,3759.95,3.2,1.28,3.0674,0.997020561473032,-0.7310867828
S-SCN-Rh,0.318333333333333,5.1980268648026,2.606,0.134458537778234,8.64,2.28,3759.95,3,1.28,3.0674,0.190918830920368,0.0700132612
S-SCN-Ru,0.358333333333333,5.11949478250593,2.59,0.161717396775766,9.36,2.2,3759.95,3,1.28,3.0674,0.247487373415291,0.2356453572
S-SCN-Sc,0.778333333333333,6.75684901524478,2.422,0.506187801966654,23.28,1.36,3759.95,2.8,1.28,3.0674,0.841457069611991,-0.6397287788
S-SCN-Sm,0.873333333333333,4.83259071692798,2.384,0.582814787035019,19.44,1.17,3759.95,3.2,1.28,3.0674,0.975807358037435,-0.7308587308
S-SCN-Y,0.848333333333333,6.36876052337798,2.394,0.563121432466778,22.96,1.22,3759.95,3,1.28,3.0674,0.940452018978108,-0.7645696128
S-SH-Al,0.675,8.52552420073073,2.2425,0.209607008802607,6.125,1.61,919.46,2.5,1.75,3.06425,0.417193000900063,-0.7511919935
S-SH-Bi,0.47,5.11655519827521,2.345,0.075405485239789,1.75,2.02,530.39,3.25,1.375,3.06425,0.127279220613579,-0.134226046
S-SH-Ce,0.92,4.82457019626255,2.12,0.413099512040662,27.875,1.12,1056.99,3.25,2,3.06425,0.763675323681471,-1.3804805935
S-SH-Co,0.54,4.93813093470179,2.31,0.115294095056517,11.75,1.88,1753.99,2.75,2,3.06425,0.226274169979695,-0.330133756
S-SH-Cr,0.65,4.97484701094315,2.255,0.190711651828668,15.125,1.66,2165.99,2.75,2,3.06425,0.381837661840736,-0.610862526
S-SH-Fe,0.565,5.61724065941452,2.2975,0.131184943737157,12.875,1.83,1796.99,2.75,2,3.06425,0.261629509039023,-0.203661171
S-SH-Ga,0.575,6.12701446996583,2.2925,0.137762910230166,5.75,1.81,374.35,2.75,1.75,3.06425,0.275771644662754,-0.3621772285
S-SH-Gd,0.88,5.40955099839168,2.14,0.378798640994549,23.375,1.2,1571.99,3.25,2,3.06425,0.707106781186548,-0.400426766
S-SH-In,0.59,5.60291090160593,2.285,0.147856211033789,5.375,1.78,415.74,3,1.75,3.06425,0.29698484809835,-0.4282953935
S-SH-Ir,0.38,4.74578758584046,2.39,0.035456165723185,11,2.2,2724.99,3.25,2,3.06425,0,-0.3040640185
S-SH-La,0.93,5.92842739974564,2.115,0.421663847129056,28.625,1.1,1178.99,3.25,2,3.06425,0.777817459305202,-1.477408296
S-SH-Lu,0.845,5.47050881659545,2.1575,0.348856349613711,18.125,1.27,1921.99,3.25,2,3.06425,0.657609306503489,-1.412774351
S-SH-Nd,0.91,4.99300354783113,2.125,0.40452745776073,26.375,1.14,1279.99,3.25,2,3.06425,0.749533188057741,-1.4066136285
S-SH-Rh,0.34,5.33136733092608,2.41,0.035456165723185,11.375,2.2,2222.99,3,2,3.06425,0.056568542494924,-0.3841137635
S-SH-Ru,0.38,5.25082073336594,2.39,0.035456165723185,12.5,2.2,2592.99,3,2,3.06425,0,-0.1820639635
S-SH-Sc,0.8,6.93017659139091,2.18,0.310714689453374,29.375,1.36,1799.99,2.75,2,3.06425,0.5939696961967,-1.3310335835