Compound,mean EN difference,geom-mean_eta_both,MagpieData mean Electronegativity,max ionic char,MagpieData avg_dev MendeleevNumber,MagpieData minimum Electronegativity,MagpieData range MeltingT,MagpieData mean Row,MagpieData avg_dev NpValence,MagpieData mean GSbandgap,std_dev EN difference,Formation_energy
S-Te-Pd,0.14,5.663228979922,2.29333333333333,0.055972517082164,12,2.1,1439.69,4.33333333333333,1.77777777777778,0.888666666666667,0,-0.2693581257
S-Te-Pt,0.06,5.68509494577148,2.32,0.055972517082164,11.5555555555556,2.1,1653.04,4.66666666666667,1.77777777777778,0.888666666666667,0,-0.476717289
S-Te-Re,0.44,6.05286616011198,2.19333333333333,0.109168515365691,15.5555555555556,1.9,3070.64,4.66666666666667,1.77777777777778,0.888666666666667,0,0.056416681
S-Te-Ru,0.14,5.64119284663666,2.29333333333333,0.055972517082164,14.6666666666667,2.1,2218.64,4.33333333333333,1.77777777777778,0.888666666666667,0,-0.249136579
S-Te-Sn,0.38,7.28419675099816,2.21333333333333,0.091626825790732,4,1.96,334.3,4.33333333333333,0.888888888888889,0.888666666666667,0,-0.2064403923
S-Te-Tc,0.44,6.46598403299551,2.19333333333333,0.109168515365691,16,1.9,2041.64,4.33333333333333,1.77777777777778,0.888666666666667,0,-0.2280079157
S-Te-Ti,0.8,8.39364598849814,2.07333333333333,0.236925796398664,20.4444444444444,1.54,1552.64,4,1.77777777777778,0.888666666666667,0,-1.195514569
S-Te-W,-0.02,4.87924022929371,2.34666666666667,0.055972517082164,16.8888888888889,2.1,3306.64,4.66666666666667,1.77777777777778,0.888666666666667,0,-0.214357659
S-Te-Zr,1.01,7.8609297762512,2.00333333333333,0.323366153838271,20,1.33,1739.64,4.33333333333333,1.77777777777778,0.888666666666667,0,-1.419420369
Se-Te-Ce,1.205,6.36649153263423,1.92333333333333,0.400239577896362,33.1111111111111,1.12,577,5,1.77777777777778,0.421,0,-1.50161515
Se-Te-Ge,0.315,7.53781200952243,2.22,0.070306205243046,4.66666666666667,2.01,717.4,4.33333333333333,0.888888888888889,0.548666666666667,0,-0.02356024
Se-Te-Hf,1.025,7.94630710703415,1.98333333333333,0.323366153838271,19.7777777777778,1.3,2012,5,1.77777777777778,0.421,0,-1.2185989267
Se-Te-Ir,0.125,6.89598590300429,2.28333333333333,0.049364908141302,13.1111111111111,2.1,2245,5,1.77777777777778,0.421,0,-0.2769644367
Se-Te-Mo,0.165,5.0530876781251,2.27,0.049364908141302,17.5555555555556,2.1,2402,4.66666666666667,1.77777777777778,0.421,0,-0.31138972
Se-Te-Os,0.125,4.9577235477929,2.28333333333333,0.049364908141302,14.4444444444444,2.1,2812,5,1.77777777777778,0.421,0,0.1160628933
Se-Te-Pd,0.125,5.36140751630246,2.28333333333333,0.049364908141302,12.2222222222222,2.1,1334.05,4.66666666666667,1.77777777777778,0.421,0,-0.3346269667
Se-Te-Pt,0.045,5.38210813675631,2.31,0.049364908141302,11.7777777777778,2.1,1547.4,5,1.77777777777778,0.421,0,-0.54127749
Se-Te-Re,0.425,5.73027900532535,2.18333333333333,0.100238004432346,15.7777777777778,1.9,2965,5,1.77777777777778,0.421,0,0.18549323
Se-Te-Ru,0.125,5.34054579747649,2.28333333333333,0.049364908141302,14.8888888888889,2.1,2113,4.66666666666667,1.77777777777778,0.421,0,-0.14889731
Se-Te-Sn,0.365,6.89598590300429,2.20333333333333,0.083345821007779,4.22222222222222,1.96,228.66,4.66666666666667,0.888888888888889,0.421,0,-0.2236851167
Se-Te-Tc,0.425,6.12137978487164,2.18333333333333,0.100238004432346,16.2222222222222,1.9,1936,4.66666666666667,1.77777777777778,0.421,0,-0.1738232733
Se-Te-Ti,0.785,7.94630710703415,2.06333333333333,0.225102874709209,20.6666666666667,1.54,1447,4.33333333333333,1.77777777777778,0.421,0,-1.0681127367
Se-Te-W,-0.035,4.61920140116618,2.33666666666667,0.049364908141302,17.1111111111111,2.1,3201,5,1.77777777777778,0.421,0,-0.0908860467
Se-Te-Zr,0.995,7.44198197476018,1.99333333333333,0.310714689453374,20.2222222222222,1.33,1634,4.66666666666667,1.77777777777778,0.421,0,-1.2968005133