Compound,mean EN difference,geom-mean_eta_both,MagpieData mean Electronegativity,max ionic char,MagpieData avg_dev MendeleevNumber,MagpieData minimum Electronegativity,MagpieData range MeltingT,MagpieData mean Row,MagpieData avg_dev NpValence,MagpieData mean GSbandgap,std_dev EN difference,Formation_energy
NH-OCN-Nd,1.21,5.4172289225688,2.56833333333333,0.733531702186476,18.0555555555556,1.14,3808.99,2.5,1.33333333333333,4.20383333333333,0.734188894858355,-0.846531805
NH-OCN-Rh,0.83,5.78434143402055,2.75833333333333,0.319140970908075,7.88888888888889,2.2,3808.99,2.33333333333333,1.33333333333333,4.20383333333333,0.183393929379719,-0.0067712283
NH-OCN-Ru,0.856666666666666,5.69695127822808,2.745,0.319140970908075,8.55555555555556,2.2,3808.99,2.33333333333333,1.33333333333333,4.20383333333333,0.202072594216369,0.0990284417
NH-OCN-Sc,1.13666666666667,7.51899186726993,2.605,0.660947392745558,20.2777777777778,1.36,3808.99,2.16666666666667,1.33333333333333,4.20383333333333,0.611582646363787,-0.90475236
NH-OCN-Sm,1.2,5.3776856958686,2.57333333333333,0.724240177376075,16.9444444444444,1.17,3808.99,2.5,1.33333333333333,4.20383333333333,0.717379490460477,-0.8663882583
NH-OCN-Y,1.18333333333333,7.08712870034939,2.58166666666667,0.708320592678053,20,1.22,3808.99,2.33333333333333,1.33333333333333,4.20383333333333,0.689420046125727,-0.925882675
NH-SCN-Al,0.766666666666667,8.55691448464101,2.50333333333333,0.400239577896362,5.11111111111111,1.61,3808.99,2.16666666666667,1.16666666666667,4.57083333333333,0.475078940808788,-0.1587588945
NH-SCN-Bi,0.63,5.13539393669586,2.57166666666667,0.229025515499885,4.16666666666667,2.02,3808.99,2.66666666666667,1,4.57083333333333,0.269505720409295,0.4345140138
NH-SCN-Ce,0.93,4.84233386974937,2.42166666666667,0.602118079548795,19.2222222222222,1.12,3808.99,2.66666666666667,1.33333333333333,4.57083333333333,0.74540816559341,-0.4344396228
NH-SCN-Co,0.676666666666667,4.95631272955414,2.54833333333333,0.285662686264043,8.22222222222222,1.88,3808.99,2.33333333333333,1.33333333333333,4.57083333333333,0.335111921602321,0.2891521338
NH-SCN-Cr,0.75,4.99316399138997,2.51166666666667,0.378798640994549,10.2222222222222,1.66,3808.99,2.33333333333333,1.33333333333333,4.57083333333333,0.448367408866137,0.0217896938
NH-SCN-Fe,0.693333333333333,5.63792288081696,2.54,0.306514536143557,8.88888888888889,1.83,3808.99,2.33333333333333,1.33333333333333,4.57083333333333,0.360046293319808,0.3516155872
NH-SCN-Ga,0.7,6.14957363691044,2.53666666666667,0.314923658853183,5,1.81,3808.99,2.33333333333333,1.16666666666667,4.57083333333333,0.370180136330048,0.1535824538
NH-SCN-Gd,0.903333333333333,5.42946852342224,2.435,0.571043601320927,15.8888888888889,1.2,3808.99,2.66666666666667,1.33333333333333,4.57083333333333,0.70059498523279,-0.4745800945
NH-SCN-In,0.71,5.62354036201029,2.53166666666667,0.327598737602997,4.88888888888889,1.78,3808.99,2.5,1.16666666666667,4.57083333333333,0.385529938310027,0.1556903905
NH-SCN-Ir,0.57,4.76326118818911,2.60166666666667,0.161717396775766,7.77777777777778,2.2,3808.99,2.66666666666667,1.33333333333333,4.57083333333333,0.202072594216369,0.3390841788
NH-SCN-La,0.936666666666667,5.95025538531438,2.41833333333333,0.609723571536479,19.7777777777778,1.1,3808.99,2.66666666666667,1.33333333333333,4.57083333333333,0.756637297521078,-0.5047144962
NH-SCN-Lu,0.88,5.4906507833348,2.44666666666667,0.543069966787304,12,1.27,3808.99,2.66666666666667,1.33333333333333,4.57083333333333,0.661538610614175,-0.5432381245
NH-SCN-Nd,0.923333333333333,5.0113873791641,2.425,0.59444549493668,18.1111111111111,1.14,3808.99,2.66666666666667,1.33333333333333,4.57083333333333,0.734188894858356,-0.4743857312
NH-SCN-Rh,0.543333333333333,5.35099699007753,2.615,0.161717396775766,8,2.2,3808.99,2.5,1.33333333333333,4.57083333333333,0.183393929379719,0.2867529555
NH-SCN-Ru,0.57,5.27015382652262,2.60166666666667,0.161717396775766,8.66666666666667,2.2,3808.99,2.5,1.33333333333333,4.57083333333333,0.202072594216369,0.4286277622
NH-SCN-Sc,0.85,6.95569293568016,2.46166666666667,0.506187801966654,20.3333333333333,1.36,3808.99,2.33333333333333,1.33333333333333,4.57083333333333,0.611582646363787,-0.4953518762
NH-SCN-Sm,0.913333333333333,4.97480660510982,2.43,0.582814787035019,17,1.17,3808.99,2.66666666666667,1.33333333333333,4.57083333333333,0.717379490460477,-0.4878439112
NH-SCN-Y,0.896666666666667,6.55618358225132,2.43833333333333,0.563121432466778,20.0555555555556,1.22,3808.99,2.5,1.33333333333333,4.57083333333333,0.689420046125727,-0.5372554495
NH-SH-Al,0.806666666666666,8.77641757603262,2.326,0.400239577896362,6.32,1.61,919.46,2,1.52,4.869,0.417193000900063,-0.5907007654
NH-SH-Bi,0.67,5.26712773474208,2.408,0.229025515499885,3.2,2.02,530.39,2.6,1.6,4.869,0.127279220613579,0.1418748486
NH-SH-Ce,0.97,4.96655005256481,2.228,0.602118079548795,23.52,1.12,1056.99,2.6,1.68,4.869,0.763675323681471,-0.9816024814
NH-SH-Co,0.716666666666667,5.08345271301354,2.38,0.285662686264043,9.92,1.88,1753.99,2.2,1.68,4.869,0.226274169979695,-0.0327698194
NH-SH-Cr,0.79,5.12124928824582,2.336,0.378798640994549,12.64,1.66,2165.99,2.2,1.68,4.869,0.381837661840736,-0.2825689554
NH-SH-Fe,0.733333333333333,5.78254761717352,2.37,0.306514536143557,10.72,1.83,1796.99,2.2,1.68,4.869,0.261629509039023,0.0450234466
NH-SH-Ga,0.74,6.30732330549309,2.366,0.314923658853183,6.08,1.81,374.35,2.2,1.52,4.869,0.275771644662754,-0.1799561474
NH-SH-Gd,0.943333333333333,5.56874596129354,2.244,0.571043601320927,19.68,1.2,1571.99,2.6,1.68,4.869,0.707106781186548,-0.9420184174
NH-SH-In,0.75,5.76779615611018,2.36,0.327598737602997,5.84,1.78,415.74,2.4,1.52,4.869,0.29698484809835,-0.1780577594
NH-SH-Ir,0.61,4.88544898821795,2.444,0.161717396775766,9.44,2.2,2724.99,2.6,1.68,4.869,0,0.0322859486
NH-SH-La,0.976666666666667,6.10289211599463,2.224,0.609723571536479,24.16,1.1,1178.99,2.6,1.68,4.869,0.777817459305202,-0.9778911534
NH-SH-Lu,0.92,5.63149767655279,2.258,0.543069966787304,15.2,1.27,1921.99,2.6,1.68,4.869,0.657609306503489,-1.0275964714
NH-SH-Nd,0.963333333333333,5.13994014475056,2.232,0.59444549493668,22.24,1.14,1279.99,2.6,1.68,4.869,0.749533188057741,-0.9422581634
NH-SH-Rh,0.583333333333333,5.488261465895,2.46,0.161717396775766,9.68,2.2,2222.99,2.4,1.68,4.869,0.056568542494924,-0.0200077014
NH-SH-Ru,0.61,5.40534450291742,2.444,0.161717396775766,10.4,2.2,2592.99,2.4,1.68,4.869,0,0.1355791046
NH-SH-Sc,0.89,7.13412128212362,2.276,0.506187801966654,24.8,1.36,1799.99,2.2,1.68,4.869,0.5939696961967,-0.9685290274
NH-SH-Sm,0.953333333333333,5.10242099588783,2.238,0.582814787035019,20.96,1.17,1330.99,2.6,1.68,4.869,0.728319984622144,-0.9613483914
NH-SH-Y,0.936666666666666,6.72436366242136,2.248,0.563121432466778,24.48,1.22,1784.99,2.4,1.68,4.869,0.692964645562817,-1.0222460874
O-Br-Al,1.59,9.80475959278324,2.67,0.567089816109359,8,1.61,878.67,3,1.55555555555556,0.485666666666667,0,-2.0543791967
O-Br-Bi,1.18,5.88428259437631,2.80666666666667,0.395951025061975,3.77777777777778,2.02,489.6,4,0.666666666666667,0.485666666666667,0,-0.9111333567
O-Br-Ce,2.08,5.54848591114279,2.50666666666667,0.739616569076971,33.7777777777778,1.12,1016.2,4,2,0.485666666666667,0,-2.96055842
O-Br-Co,1.32,5.67908617845307,2.76,0.455779073674793,14.6666666666667,1.88,1713.2,3.33333333333333,2,0.485666666666667,0,-0.62090485
O-Br-Cr,1.54,5.72131141789418,2.68666666666667,0.547107278760105,18.6666666666667,1.66,2125.2,3.33333333333333,2,0.485666666666667,0,-1.57953119
O-Br-Fe,1.37,6.46009476292918,2.74333333333333,0.476922164006862,16,1.83,1756.2,3.33333333333333,2,0.485666666666667,0,-0.9661544533
O-Br-Ga,1.39,7.04635896692079,2.73666666666667,0.485327755826721,7.55555555555556,1.81,248.11,3.33333333333333,1.55555555555556,0.485666666666667,0,-1.23586117
O-Br-Gd,2,6.22124174365548,2.53333333333333,0.714753054942695,28.4444444444444,1.2,1531.2,4,2,0.485666666666667,0,-2.9463588467
O-Br-In,1.42,6.44361485776112,2.72666666666667,0.497871893693153,7.11111111111111,1.78,374.95,3.66666666666667,1.55555555555556,0.485666666666667,0,-1.29893935
O-Br-Ir,1,5.45788215035418,2.86666666666667,0.319140970908075,13.7777777777778,2.2,2684.2,4,2,0.485666666666667,0,-0.0182451233
O-Br-La,2.1,6.81797436136454,2.5,0.745613369000596,34.6666666666667,1.1,1138.2,4,2,0.485666666666667,0,-3.07624847
O-Br-Lu,1.93,6.29134614295298,2.55666666666667,0.691867378684938,22.2222222222222,1.27,1881.2,4,2,0.485666666666667,0,-3.0751808233
O-Br-Nd,2.06,5.74219230158329,2.51333333333333,0.733531702186476,32,1.14,1239.2,4,2,0.485666666666667,0,-2.9691336567
O-Br-Rh,0.92,6.13132679584305,2.89333333333333,0.285662686264043,14.2222222222222,2.28,2182.2,3.66666666666667,2,0.485666666666667,0,-0.42716734
O-Br-Ru,1,6.03869436568395,2.86666666666667,0.319140970908075,15.5555555555556,2.2,2552.2,3.66666666666667,2,0.485666666666667,0,-0.3991592633
O-Br-Sc,1.84,7.97003372628958,2.58666666666667,0.660947392745558,35.5555555555556,1.36,1759.2,3.33333333333333,2,0.485666666666667,0,-2.92403384
O-Br-Sm,2.03,5.7002769948493,2.52333333333333,0.724240177376075,30.2222222222222,1.17,1290.2,4,2,0.485666666666667,0,-2.99193014
O-Br-Y,1.98,7.51226437818299,2.54,0.708320592678053,35.1111111111111,1.22,1744.2,3.66666666666667,2,0.485666666666667,0,-3.0797077333
O-Cl-Al,1.69,10.1793443326963,2.73666666666667,0.567089816109359,7.77777777777778,1.61,878.67,2.66666666666667,1.55555555555556,0.831,0,-2.41606059
O-Cl-Bi,1.28,6.10908794980917,2.87333333333333,0.395951025061975,3.33333333333333,2.02,489.6,3.66666666666667,0.666666666666667,0.831,0,-1.0070263167
O-Cl-Ce,2.18,5.76046236321883,2.57333333333333,0.739616569076971,33.5555555555556,1.12,1016.2,3.66666666666667,2,0.831,0,-3.1145408267
O-Cl-Co,1.42,5.89605213248477,2.82666666666667,0.455779073674793,14.4444444444444,1.88,1713.2,3,2,0.831,0,-0.8537541267
O-Cl-Cr,1.64,5.93989056092701,2.75333333333333,0.547107278760105,18.4444444444444,1.66,2125.2,3,2,0.831,0,-1.8582969633
O-Cl-Fe,1.47,6.70689866400256,2.81,0.476922164006862,15.7777777777778,1.83,1756.2,3,2,0.831,0,-1.02439367
O-Cl-Ga,1.49,7.31556072714557,2.80333333333333,0.485327755826721,7.33333333333333,1.81,248.11,3,1.55555555555556,0.831,0,-1.5101850067
O-Cl-Gd,2.1,6.45892041373717,2.6,0.714753054942695,28.2222222222222,1.2,1531.2,3.66666666666667,2,0.831,0,-2.0806707467
O-Cl-In,1.52,6.68978915431103,2.79333333333333,0.497871893693153,6.88888888888889,1.78,374.95,3.33333333333333,1.55555555555556,0.831,0,-1.4747940433
O-Cl-Ir,1.1,5.66639714212117,2.93333333333333,0.319140970908075,13.5555555555556,2.2,2684.2,3.66666666666667,2,0.831,0,-0.2164277633
O-Cl-La,2.2,7.07845082983047,2.56666666666667,0.745613369000596,34.4444444444444,1.1,1138.2,3.66666666666667,2,0.831,0,-3.2286882833
O-Cl-Lu,2.03,6.53170310799225,2.62333333333333,0.691867378684938,22,1.27,1881.2,3.66666666666667,2,0.831,0,-3.28155391
O-Cl-Nd,2.16,5.96156918578578,2.58,0.733531702186476,31.7777777777778,1.14,1239.2,3.66666666666667,2,0.831,0,-3.1260625467
O-Cl-Rh,1.02,6.36557032128688,2.96,0.285662686264043,14,2.28,2182.2,3.33333333333333,2,0.831,0,-0.6502861
O-Cl-Ru,1.1,6.26939892676764,2.93333333333333,0.319140970908075,15.3333333333333,2.2,2552.2,3.33333333333333,2,0.831,0,-0.6097159933
O-Cl-Sc,1.94,8.27452390600372,2.65333333333333,0.660947392745558,35.3333333333333,1.36,1759.2,3,2,0.831,0,-3.14324657
O-Cl-Sm,2.13,5.91805253083691,2.59,0.724240177376075,30,1.17,1290.2,3.66666666666667,2,0.831,0,-3.1567804467
O-Cl-Y,2.08,7.79926576476783,2.60666666666667,0.708320592678053,34.8888888888889,1.22,1744.2,3.33333333333333,2,0.831,0,-3.26110413
O-CN-Al,1.16,10.5952809182615,2.66,0.567089816109359,4.75,1.61,3768.2,2.25,1,2.73325,0.664680374315355,-0.9014388025
O-CN-Bi,0.955,6.35871043036518,2.7625,0.395951025061975,3.5,2.02,3768.2,3,0.5,2.73325,0.37476659402887,0.1445475825
O-CN-Ce,1.405,5.99583970858855,2.5375,0.739616569076971,25.125,1.12,3768.2,3,1.25,2.73325,1.01116269709676,-1.4506824875
O-CN-Co,1.025,6.13696979006153,2.7275,0.455779073674793,9,1.88,3768.2,2.5,1.25,2.73325,0.473761543394987,0.118577685
O-CN-Cr,1.135,6.18259949362393,2.6725,0.547107278760105,12.375,1.66,3768.2,2.5,1.25,2.73325,0.629325035256027,-0.4971052225
O-CN-Fe,1.05,6.98094819399801,2.715,0.476922164006862,10.125,1.83,3768.2,2.5,1.25,2.73325,0.509116882454314,0.013094435
O-CN-Ga,1.06,7.61448070184085,2.71,0.485327755826721,4.5,1.81,3768.2,2.5,1,2.73325,0.523259018078045,-0.2047899075
O-CN-Gd,1.365,6.72283734350429,2.5575,0.714753054942695,20.625,1.2,3768.2,3,1.25,2.73325,0.954594154601839,-0.365523155
O-CN-In,1.075,6.96313957532567,2.7025,0.497871893693153,4.25,1.78,3768.2,2.75,1,2.73325,0.544472221513641,-0.1556318325
O-CN-Ir,0.865,5.89793090330658,2.8075,0.319140970908075,8.25,2.2,3768.2,3,1.25,2.73325,0.247487373415291,0.457767475
O-CN-La,1.415,7.36768229435558,2.5325,0.745613369000596,25.875,1.1,3768.2,3,1.25,2.73325,1.02530483272049,-1.4607396225
O-CN-Lu,1.33,6.79859399996628,2.575,0.691867378684938,15.375,1.27,3768.2,3,1.25,2.73325,0.905096679918781,-1.502021265
O-CN-Nd,1.395,6.20516392535875,2.5425,0.733531702186476,23.625,1.14,3768.2,3,1.25,2.73325,0.997020561473032,-1.3808982825
O-CN-Rh,0.825,6.62567288762872,2.8275,0.285662686264043,8.625,2.28,3768.2,2.75,1.25,2.73325,0.190918830920368,0.1992348625
O-CN-Ru,0.865,6.5255718489047,2.8075,0.319140970908075,9.75,2.2,3768.2,2.75,1.25,2.73325,0.247487373415291,0.26425199
O-CN-Sc,1.285,8.61262792411679,2.5975,0.660947392745558,26.625,1.36,3768.2,2.5,1.25,2.73325,0.841457069611991,-1.40234112
O-CN-Sm,1.38,6.15986914322574,2.55,0.724240177376075,22.125,1.17,3768.2,3,1.25,2.73325,0.975807358037435,-1.403347095
O-CN-Y,1.355,8.11795033482345,2.5625,0.708320592678053,26.25,1.22,3768.2,2.75,1.25,2.73325,0.940452018978108,-1.485130275
O-F-Al,2.1,11.6248279159018,3.01,0.754442710372489,7.55555555555556,1.61,879.97,2.33333333333333,1.55555555555556,0.656666666666667,0,-3.3634347733
O-F-Bi,1.69,6.97658845388817,3.14666666666667,0.617260240551931,2.88888888888889,2.02,490.9,3.33333333333333,0.666666666666667,0.656666666666667,0,-1.5495868967
O-F-Ce,2.59,6.57845746246708,2.84666666666667,0.870606871356709,33.3333333333333,1.12,1017.5,3.33333333333333,2,0.656666666666667,0,-3.7669668733
O-F-Co,1.83,6.73330120125393,3.1,0.667960054655339,14.2222222222222,1.88,1714.5,2.66666666666667,2,0.656666666666667,0,-1.67552424
O-F-Cr,2.05,6.78336475840345,3.02666666666667,0.739616569076971,18.2222222222222,1.66,2126.5,2.66666666666667,2,0.656666666666667,0,-2.6433006733
O-F-Fe,1.88,7.65928926954471,3.08333333333333,0.685139312535294,15.5555555555556,1.83,1757.5,2.66666666666667,2,0.656666666666667,0,-1.8052153533
O-F-Ga,1.9,8.35438234349136,3.07666666666667,0.691867378684938,7.11111111111111,1.81,249.41,2.66666666666667,1.55555555555556,0.656666666666667,0,-2.26756859
O-F-Gd,2.51,7.37609770120742,2.87333333333333,0.855156292905333,28,1.2,1532.5,3.33333333333333,2,0.656666666666667,0,-3.76134338
O-F-In,1.93,7.63975018142774,3.06666666666667,0.701802720570113,6.66666666666667,1.78,376.25,3,1.55555555555556,0.656666666666667,0,-2.0846525767
O-F-Ir,1.51,6.47103482576354,3.20666666666667,0.547107278760105,13.3333333333333,2.2,2685.5,3.33333333333333,2,0.656666666666667,0,-0.7372880967
O-F-La,2.61,8.08360245204082,2.84,0.874267670405572,34.2222222222222,1.1,1139.5,3.33333333333333,2,0.656666666666667,0,-3.8784077133
O-F-Lu,2.44,7.45921565736628,2.89666666666667,0.840550018252867,21.7777777777778,1.27,1882.5,3.33333333333333,2,0.656666666666667,0,-3.9920008967
O-F-Nd,2.57,6.80812178353199,2.85333333333333,0.866866114605718,31.5555555555556,1.14,1240.5,3.33333333333333,2,0.656666666666667,0,-3.7688862567
O-F-Rh,1.43,7.26949174259155,3.23333333333333,0.514463104845921,13.7777777777778,2.28,2183.5,3,2,0.656666666666667,0,-1.2367507867
O-F-Ru,1.51,7.1596638523877,3.20666666666667,0.547107278760105,15.1111111111111,2.2,2553.5,3,2,0.656666666666667,0,-1.1959892033
O-F-Sc,2.35,9.44951986586647,2.92666666666667,0.820234130541532,35.1111111111111,1.36,1760.5,2.66666666666667,2,0.656666666666667,0,-3.87287093
O-F-Sm,2.54,6.75842569223941,2.86333333333333,0.861103329501181,29.7777777777778,1.17,1291.5,3.33333333333333,2,0.656666666666667,0,-3.8114573667
O-F-Y,2.49,8.90677428943943,2.88,0.851088036998852,34.6666666666667,1.22,1745.5,3,2,0.656666666666667,0,-3.93839152
O-I-Al,1.44,9.39913225730606,2.57,0.567089816109359,8.22222222222222,1.61,878.67,3.33333333333333,1.55555555555556,0.354,0,-1.35059008
O-I-Bi,1.03,5.64084716412789,2.70666666666667,0.395951025061975,4.22222222222222,2.02,489.6,4.33333333333333,0.666666666666667,0.354,0,-0.6409801233
O-I-Ce,1.93,5.31894254143834,2.40666666666667,0.739616569076971,34,1.12,1016.2,4.33333333333333,2,0.354,0,-2.6092491433
O-I-Co,1.17,5.44413981666703,2.66,0.455779073674793,14.8888888888889,1.88,1713.2,3.66666666666667,2,0.354,0,-0.4160141433
O-I-Cr,1.39,5.48461817886936,2.58666666666667,0.547107278760105,18.8888888888889,1.66,2125.2,3.66666666666667,2,0.354,0,-0.9557026433
O-I-Fe,1.22,6.19283772303748,2.64333333333333,0.476922164006862,16.2222222222222,1.83,1756.2,3.66666666666667,2,0.354,0,-0.60263514
O-I-Ga,1.24,6.75484791195606,2.63666666666667,0.485327755826721,7.77777777777778,1.81,332.05,3.66666666666667,1.55555555555556,0.354,0,-0.6809109967
O-I-Gd,1.85,5.9638661611174,2.43333333333333,0.714753054942695,28.6666666666667,1.2,1531.2,4.33333333333333,2,0.354,0,-2.56278415
O-I-In,1.27,6.17703959899408,2.62666666666667,0.497871893693153,7.33333333333333,1.78,374.95,4,1.55555555555556,0.354,0,-0.86809804
O-I-Ir,0.85,5.23208709918066,2.76666666666667,0.319140970908075,14,2.2,2684.2,4.33333333333333,2,0.354,0,0.3060251567
O-I-La,1.95,6.5359116807469,2.4,0.745613369000596,34.8888888888889,1.1,1138.2,4.33333333333333,2,0.354,0,-2.7330125
O-I-Lu,1.78,6.03107030973326,2.45666666666667,0.691867378684938,22.4444444444444,1.27,1881.2,4.33333333333333,2,0.354,0,-2.61905956
O-I-Nd,1.91,5.50463521096342,2.41333333333333,0.733531702186476,32.2222222222222,1.14,1239.2,4.33333333333333,2,0.354,0,-2.6119606733
O-I-Rh,0.77,5.87767103533177,2.79333333333333,0.285662686264043,14.4444444444444,2.28,2182.2,4,2,0.354,0,-0.0106391033
O-I-Ru,0.85,5.78887085067229,2.76666666666667,0.319140970908075,15.7777777777778,2.2,2552.2,4,2,0.354,0,0.0364905233
O-I-Sc,1.69,7.6403098290879,2.48666666666667,0.660947392745558,35.7777777777778,1.36,1759.2,3.66666666666667,2,0.354,0,-2.4446291733
O-I-Sm,1.88,5.46445395941206,2.42333333333333,0.724240177376075,30.4444444444444,1.17,1290.2,4.33333333333333,2,0.354,0,-2.6176848533
O-I-Y,1.83,7.20147860579492,2.44,0.708320592678053,35.3333333333333,1.22,1744.2,4,2,0.354,0,-2.67295213
O-NC-Al,1.16,10.6615031432043,2.66,0.567089816109359,4.75,1.61,3768.2,2.25,1,2.73325,0.664680374315355,-1.0435437825
O-NC-Bi,0.955,6.39845340232734,2.7625,0.395951025061975,3.5,2.02,3768.2,3,0.5,2.73325,0.37476659402887,0.1394272225
O-NC-Ce,1.405,6.03331467965974,2.5375,0.739616569076971,25.125,1.12,3768.2,3,1.25,2.73325,1.01116269709676,-1.54040598
O-NC-Co,1.025,6.17532684704187,2.7275,0.455779073674793,9,1.88,3768.2,2.5,1.25,2.73325,0.473761543394987,0.10717179
O-NC-Cr,1.135,6.22124174365548,2.6725,0.547107278760105,12.375,1.66,3768.2,2.5,1.25,2.73325,0.629325035256027,-0.5659726775
O-NC-Fe,1.05,7.02458025294796,2.715,0.476922164006862,10.125,1.83,3768.2,2.5,1.25,2.73325,0.509116882454314,-0.0053013225
O-NC-Ga,1.06,7.6620724417626,2.71,0.485327755826721,4.5,1.81,3768.2,2.5,1,2.73325,0.523259018078045,-0.2893252425
O-NC-Gd,1.365,6.76485616775726,2.5575,0.714753054942695,20.625,1.2,3768.2,3,1.25,2.73325,0.954594154601839,-0.457674455
O-NC-In,1.075,7.00666032751927,2.7025,0.497871893693153,4.25,1.78,3768.2,2.75,1,2.73325,0.544472221513641,-0.21301596
O-NC-Ir,0.865,5.93479392845796,2.8075,0.319140970908075,8.25,2.2,3768.2,3,1.25,2.73325,0.247487373415291,0.6205043225
O-NC-La,1.415,7.41373150418473,2.5325,0.745613369000596,25.875,1.1,3768.2,3,1.25,2.73325,1.02530483272049,-1.5499262225
O-NC-Lu,1.33,6.84108631561452,2.575,0.691867378684938,15.375,1.27,3768.2,3,1.25,2.73325,0.905096679918781,-1.6141799725